37
Properties=species:S:1:pos:R:3 comment="iter_0000 image=0 neb_iter=0 E=-70733.556883eV fmax=10.072" pbc="F F F"
Fe      -0.39371888      -0.25987191      -0.19210745
C       -1.71973550      -1.38254542       0.14722556
O       -2.57225780      -2.09570753       0.38495609
P       -1.64265479       0.85869252      -1.69806840
C       -2.41250159       2.05015570      -0.63229620
C       -2.01835637       1.93593719       0.67230567
N       -1.05947208       1.08319054       1.06269826
C       -0.89445680       0.69296663       2.45260529
C        0.45735014      -0.01070457       2.55470189
N        0.58743613      -0.85574531       1.38476015
C        1.47945204      -1.82837590       1.29010403
C        1.73206008      -2.50024007       0.11212723
P        0.74131889      -1.92104381      -1.22618486
H        0.02180681      -3.00720086      -1.76959649
H        1.55875973      -1.70769135      -2.35570311
H        2.40874299      -3.33990649       0.07009219
H        2.03756027      -2.10043742       2.18991503
H        0.53220405      -0.57955828       3.48756450
H        1.25080911       0.75213150       2.57801901
H       -0.94457229       1.55390932       3.12818747
H       -1.68121118      -0.00943230       2.75627155
H       -2.47278349       2.57337232       1.43371520
H       -3.12267274       2.79895848      -0.94917036
H       -2.66263307       0.24420383      -2.44951822
H       -1.02120936       1.53818161      -2.76702966
O        1.05250392       1.27750718      -0.50084486
C        2.45495814       1.25796722      -0.15125981
C        3.22752396       0.87603109      -1.39368673
H        2.95870706      -0.12481154      -1.72527469
H        4.29844960       0.88398915      -1.18671584
H        3.01865705       1.58467626      -2.19721115
C        2.84268095       2.62784393       0.37437573
H        3.89507919       2.64227166       0.66271735
H        2.68164621       3.38632608      -0.39477464
H        2.24851697       2.89139842       1.25345396
H        2.60707652       0.50046467       0.62335964
H        0.56808282       1.77892271       0.18501166
37
Properties=species:S:1:pos:R:3 comment="iter_0000 image=1 neb_iter=0 E=-70719.593714eV fmax=10.072" pbc="F F F"
Fe      -0.26655640      -0.49195477      -0.33721732
C       -3.38523442      -2.06590419       0.09639646
O       -4.33566081      -2.44053776       0.59733038
P       -1.84376100       0.22986030      -2.18615697
C       -2.34703328       1.18068305      -0.66160053
C       -2.21923571       0.88748354       0.68929616
N       -1.16213629       0.65168737       1.43701478
C       -1.11220614       0.26917681       2.86763910
C        0.43912666       0.29931135       3.05938912
N        0.83060647      -0.40876737       1.84860421
C        1.66532301      -1.42105310       1.75645217
C        1.78075326      -1.88646002       0.46245741
P        1.04589479      -1.44747150      -2.00330148
H        0.60751651      -2.58268997      -2.72688551
H        1.62962160      -0.83641983      -3.16158432
H        2.42743774      -2.64638840       0.11707150
H        2.35592180      -1.57675887       2.58345020
H        0.67072278      -0.28154565       3.96595758
H        1.11210836       1.17340900       3.06275681
H       -1.48374566       0.98216367       3.61960797
H       -1.66513282      -0.65431814       3.12488077
H       -3.05995239       0.94979653       1.38033400
H       -3.35318222       1.43701588      -0.97943631
H       -2.75950466      -0.69011159      -2.76309599
H       -1.50396866       1.05921432      -3.27882057
O        1.42798212       1.41932396      -0.61368651
C        2.82796383       1.44521539      -0.25526044
C        3.55526166       1.18163985      -1.58158908
H        3.13286297       0.35478103      -2.15228777
H        4.61849637       0.92463386      -1.48588579
H        3.50340849       2.06418710      -2.22791115
C        3.75212014       2.33382837       0.65149849
H        4.78702385       1.98674144       0.77235617
H        3.75814717       3.28658307       0.11939426
H        3.37015060       2.50889260       1.66358700
H        2.89199098       0.55100170       0.37588393
H        0.50148824       1.59606336      -0.20651708
37
Properties=species:S:1:pos:R:3 comment="iter_0000 image=2 neb_iter=0 E=-70701.030510eV fmax=10.072" pbc="F F F"
Fe      -0.02579306      -0.76981053      -1.01473745
C       -5.88108862      -1.84501906       0.05262789
O       -6.11258917      -2.55330958       0.91240059
P       -2.25382484       0.07218011      -2.88484256
C       -2.45410147       0.31374551      -0.40107721
C       -2.38820138      -0.29976841       0.90867554
N       -1.86089444       0.34601047       2.00314038
C       -1.47320468       0.08494769       3.43043785
C        0.24734810       0.67786970       3.78373376
N        0.59757135       0.08730884       2.57555219
C        1.61552605      -0.84309819       2.51819999
C        1.76142170      -0.29452315       1.24390396
P        1.00294058      -1.01504652      -3.16309695
H        0.88782250      -2.24419235      -3.79135613
H        1.75362027      -0.19193137      -4.01948453
H        2.04684321      -1.27013479       0.79116112
H        2.46786575      -1.13767489       3.12767610
H        0.54980653      -0.09473693       4.52844238
H        1.10741377       1.41099885       3.91867905
H       -1.72948125       0.67593568       4.33875589
H       -2.11231944      -0.78934561       3.68126299
H       -2.58864830      -1.37769666       1.08580254
H       -3.19302898      -0.24427264      -0.93506418
H       -2.91489966      -1.10750174      -3.30951938
H       -1.88496257       1.01274835      -3.82168876
O        1.96087976       1.34086420      -0.93910153
C        3.37280447       1.60192733      -0.48690239
C        3.90656373       1.36756515      -1.88839968
H        3.34265977       0.79404946      -2.63907849
H        4.90224133       0.91754793      -1.80701086
H        4.04029550       2.33073948      -2.39665713
C        4.64908239       2.19977045       0.73975257
H        5.57327247       1.61152137       0.63167649
H        4.71602500       3.15908101       0.23706125
H        4.53917233       2.36540945       1.82433229
H        3.62214543       0.72739671       0.08655607
H        0.94792183       1.12932301      -1.18673864
37
Properties=species:S:1:pos:R:3 comment="iter_0000 image=3 neb_iter=0 E=-70692.790912eV fmax=10.072" pbc="F F F"
Fe       0.44889383      -0.62622563      -0.11952330
C       -5.85928107      -1.23692626       0.44339742
O       -6.02251144      -2.31163496       0.83210967
P       -2.43975080       0.20176702      -2.77592489
C       -2.51368241      -0.19351921      -0.52115818
C       -2.24293650      -0.71576374       0.86419835
N       -1.79598394       0.04794420       1.87814499
C       -1.45262158      -0.06618112       3.34700379
C        0.29474891       0.37634209       3.31782623
N        1.02877303       0.00751868       2.08532042
C        1.83255209      -1.08207373       2.36118007
C        0.63937450       2.53987671       0.78427041
P        0.85838660      -0.84121982      -3.24987177
H        0.81624897      -2.07155821      -3.96400309
H        1.71905926      -0.03017819      -3.97725836
H        0.39506203       3.54138411       0.46931013
H        2.49687290      -1.27837002       3.20639943
H        0.62447619      -0.17717839       4.22265329
H        1.36253575       1.21912452       3.74873338
H       -1.56162173       0.50179104       4.32196183
H       -2.38976355      -0.66618731       3.58812304
H       -2.22983543      -1.80371125       1.11061219
H       -2.71670641      -1.14726170      -1.00570276
H       -3.02598264      -0.92205645      -3.45170711
H       -1.98514516       0.99193756      -3.83220337
O        2.25127250      -0.15115470      -0.70842083
C        3.33665534       0.91254870      -0.30666195
C        3.76716067       1.38531286      -1.77801779
H        2.88595409       1.21206020      -2.43865235
H        4.77855324       0.89993006      -1.78531714
H        4.10353643       2.29116337      -2.36128974
C        4.60036211       1.91926958       0.72507440
H        5.46422877       1.25778118       0.58880411
H        4.87917614       2.87993714       0.26409362
H        4.59918439       2.10706618       1.82301674
H        3.19444488       0.53555987       0.72708826
H        2.55315251      -1.26303239      -0.70690652
37
Properties=species:S:1:pos:R:3 comment="iter_0000 image=4 neb_iter=0 E=-70699.730052eV fmax=10.072" pbc="F F F"
Fe       0.36957302      -0.23616907      -0.19008991
C       -5.21218460      -0.75969898       0.38706559
O       -5.71964243      -1.74676029       0.72968938
P       -2.54727749      -0.34332460      -2.10766813
C       -2.09135527      -1.34903311      -0.58872482
C       -1.89289232      -1.41599893       0.84209461
N       -1.67029323      -0.37625820       1.60887361
C       -1.44544009      -0.31894370       3.11269070
C        0.56115865      -0.12094300       3.36882257
N        0.85714119       0.08697401       1.91378965
C        0.99873192       1.38482063       1.72579524
C        0.58666686       2.56552239       0.83086325
P        0.65942617       0.24545150      -2.69967506
H        0.10627446       0.92996904      -3.75680611
H        1.71432194       0.06544791      -3.64278729
H        0.39024829       3.58163279       0.47985162
H        1.43344786       1.85771266       2.62133021
H        0.33197015       0.58716856       4.20003440
H        1.67306370      -0.16118947       3.72310044
H       -1.36884464      -0.78066921       4.12775349
H       -2.55964896      -0.14783029       3.27474868
H       -1.74735676      -2.38997393       1.35767658
H       -1.96140576      -2.38962078      -0.97026593
H       -3.07675130      -1.30197814      -3.02687388
H       -2.26111520      -0.50342649      -4.60505495
O        2.35844751      -0.40646722      -0.73493456
C        3.39339519       0.62667229      -0.32050652
C        3.76793198       1.30554042      -1.68076242
H        2.79842106       1.74693917      -1.97148035
H        4.47410702       2.12917360      -1.47057696
H        4.21635531       1.21255685      -2.71186808
C        4.74110398       1.31770339       0.81911016
H        5.41735245       2.18615885       0.81025609
H        5.45922925       0.67308264       0.29716218
H        4.80321342       1.08877352       1.90475868
H        2.88747160       0.66695792       0.65353071
H        2.39087515      -1.57518471      -0.55702028
37
Properties=species:S:1:pos:R:3 comment="iter_0000 image=5 neb_iter=0 E=-70721.144626eV fmax=10.072" pbc="F F F"
Fe      -0.29462513       0.16224719      -0.15274173
C       -3.55005209      -0.23558923       0.22893563
O       -4.49727707      -0.87705235       0.47342494
P       -1.48260950      -1.18763602      -1.95912005
C       -0.62753913      -2.23513665      -0.67827128
C       -0.73386657      -2.12722750       0.75596085
N       -1.02738068      -0.98937321       1.33513290
C       -0.93755760      -0.64760298       2.77119633
C        0.38799556       0.22327307       2.91500228
N        0.33415179       0.87981486       1.60838530
C        0.38000535       2.20293725       1.42186373
C        0.07884694       2.79957213       0.19214218
P       -0.02266474       1.58171780      -1.83006933
H       -0.98858028       2.06940778      -2.76619743
H        0.86948257       1.25344218      -2.96556083
H        0.10465900       3.87187131       0.04222554
H        0.77144004       2.73547986       2.30613112
H        0.17432955       0.85165077       3.81231206
H        1.47191962      -0.01878888       3.02290669
H       -0.75893184      -1.41749830       3.55130249
H       -1.97816228      -0.31830659       2.98630806
H       -0.57964451      -2.96691896       1.44943486
H       -0.46942674      -3.23669716      -1.07586197
H       -2.63188881      -1.87241549      -2.45086656
H       -1.05227182      -1.31929027      -3.47748128
O        1.82669823      -0.34798287      -0.59976355
C        2.92072862       0.51997400      -0.18792623
C        3.43888811       1.38185446      -1.37252448
H        2.60666661       2.00450288      -1.73403714
H        4.21732743       2.15541345      -1.17818965
H        3.84305653       0.84268439      -2.24854511
C        4.20995652       0.35518681       0.72493492
H        4.86652489       1.21212253       0.97034519
H        4.79772931      -0.35035360       0.11672512
H        3.98097077      -0.11974446       1.69383352
H        2.37137055       1.06447598       0.60173483
H        1.52837433      -1.53043481      -0.41153124
37
Properties=species:S:1:pos:R:3 comment="iter_0000 image=6 neb_iter=0 E=-70732.731608eV fmax=10.072" pbc="F F F"
Fe      -0.59630897      -0.08457502      -0.17822473
C       -2.31200397      -0.07986491       0.04527412
O       -3.47209361      -0.06236966       0.18132786
P       -0.53570179      -1.75340614      -1.63204501
C        0.75042271      -2.65260836      -0.67725054
C        0.45514256      -2.53608128       0.74002328
N       -0.20372144      -1.48490307       1.13938016
C       -0.40158202      -1.05084183       2.51344314
C        0.14628181       0.38695734       2.58995300
N       -0.24252060       1.05949585       1.36126252
C       -0.16440087       2.39011365       1.19576215
C       -0.35761475       3.00085757      -0.03773178
P       -0.66954192       1.81283828      -1.32554111
H       -1.83412159       2.21467257      -2.04703241
H        0.26424173       1.97676340      -2.39227245
H       -0.36132272       4.08681490      -0.15912600
H        0.06331861       3.00720445       2.08240459
H       -0.24158180       0.90472799       3.49057757
H        1.25341565       0.33158357       2.69111253
H        0.09841263      -1.72261574       3.23707770
H       -1.48749763      -1.04525876       2.72329518
H        0.88188683      -3.24142132       1.47434022
H        1.17910810      -3.59466446      -1.04361268
H       -1.63042391      -2.62885797      -1.89694344
H        0.00367884      -1.69554498      -2.94584989
O        1.41310682      -0.17853689      -0.65168940
C        2.49048918       0.50999087      -0.01599800
C        3.12086998       1.49198979      -1.00800508
H        2.37431105       2.23856299      -1.32560884
H        3.96901296       2.03101195      -0.54742389
H        3.48707944       0.95338778      -1.90047906
C        3.50748541      -0.50018754       0.52948318
H        4.34592966       0.01703760       1.02872951
H        3.92266730      -1.11623774      -0.28919929
H        3.03529987      -1.17515182       1.26477906
H        2.08280077       1.09189661       0.83194518
H        1.46128075      -1.46679708      -0.72071476
37
Properties=species:S:1:pos:R:3 comment="iter_0000 image=7 neb_iter=0 E=-70712.435687eV fmax=10.072" pbc="F F F"
Fe      -1.42296231      -0.23463466      -0.50487819
C       -2.71306140      -0.55075299       0.58434025
O       -3.73009859      -1.11886406       0.62321433
P       -1.24232974      -1.92566487      -1.95435538
C       -0.21870073      -2.82890698      -0.58395780
C       -0.20110062      -2.74187340       1.02461696
N       -0.45821563      -1.59331317       1.63741629
C       -0.44258770      -1.07089651       3.03282369
C        0.07593035       0.40258104       3.20803116
N       -0.78151522       1.11258843       2.28610888
C        0.40230193       3.40461378       2.17721109
C        0.57059681       4.42227198       1.18791206
P       -0.65489964       1.70870780      -2.94047679
H       -1.14122914       1.40934078      -4.24295801
H        0.42476538       2.39155727      -3.52358722
H        0.88315728       5.25696580       0.50930108
H        1.09977365       3.38785025       3.02821254
H        0.00051073       0.87885839       4.21128858
H        1.13459994       0.60826492       2.97272873
H        0.04770730      -1.61714695       3.86332788
H       -1.51930262      -1.19248140       3.29066669
H       -0.31717631      -3.59231050       1.73935350
H       -0.19696286      -3.90430695      -0.81495288
H       -2.06221973      -2.95321468      -2.55644486
H       -0.67193995      -1.70074512      -3.22751621
O        0.42379019       0.04690158      -1.11905835
C        1.19892266       1.11909695      -0.40609196
C        2.17525213       2.17493075      -1.11142380
H        1.57593076       3.02319275      -1.46911251
H        3.00976389       2.60980354      -0.50910408
H        2.80728479       1.80506264      -1.95307335
C        2.27704282       0.10305888       0.06609951
H        3.08367838       0.58623025       0.64770730
H        2.79384901      -0.38879812      -0.77606838
H        2.01020323      -0.75273460       0.69683904
H        0.74594695       1.37115590       0.59741170
H        0.59917861      -1.81732942      -0.85282368
37
Properties=species:S:1:pos:R:3 comment="iter_0000 image=8 neb_iter=0 E=-70684.478599eV fmax=10.072" pbc="F F F"
Fe      -1.96286723      -0.90395848      -0.90326677
C       -2.47041996      -1.35989792       0.88665912
O       -3.41878828      -1.94209431       1.07058957
P       -1.50127927      -2.25732047      -2.51075959
C       -0.76399989      -3.32431169      -1.24887220
C       -0.53929517      -3.44654078       1.79308049
N       -0.29030521      -2.01681670       2.18448498
C       -0.27670614      -1.42934758       3.65115592
C        0.57994248       0.17354550       3.82943134
N       -0.71159823       0.61468740       3.32527527
C        1.77872927       3.90002931       3.13123870
C        2.34431298       4.90187654       2.36417153
P        0.58777154       1.13746499      -4.48558303
H        0.57487701       0.51087966      -5.70863580
H        0.34193738       2.51121694      -4.37319354
H        3.03196197       6.38071410       0.16752224
H        2.41903259       3.39351520       3.85767083
H        0.65887253       0.68765925       4.82764262
H        1.26259162       0.88737648       3.29948628
H       -0.13327008      -1.54835714       4.76840220
H       -1.33869269      -1.79742083       3.72063215
H       -0.99332317      -4.35671586       2.25928693
H       -0.99832232      -4.35226504      -0.96122928
H       -2.08428623      -3.30994723      -3.28680139
H       -1.46999358      -1.42838130      -3.61012586
O       -0.41663179       0.22038734      -1.96233871
C        0.16511934       1.99017283      -1.37512015
C        1.51156474       2.91279736      -1.58567264
H        1.08051196       3.83444526      -1.98666873
H        2.02314233       3.25467617      -0.66560448
H        2.41422313       2.44000605      -2.02259417
C        0.57206683       1.08863433      -0.25319659
H        0.80564751       1.87863991       0.41318185
H        1.46253575       0.62187457      -0.76011603
H        0.55982311       0.27331057       0.46470943
H       -0.83084870       2.24644238       1.80226134
H        0.03755245      -2.35662006      -1.10270978
37
Properties=species:S:1:pos:R:3 comment="iter_0000 image=9 neb_iter=0 E=-70684.200432eV fmax=10.072" pbc="F F F"
Fe       0.05521200      -1.47212556      -0.97198394
C        0.30239473      -2.06873177       0.79230836
O        0.92361805      -2.97647253       1.00446429
P       -1.04095485      -2.37427939      -2.67685485
C       -1.79403274      -3.24756398      -1.24147043
C       -1.98111043      -3.42190799       1.83540857
N       -1.19830325      -1.30785724       2.37532663
C       -0.50995837      -1.16338059       3.73521424
C        0.57274543       0.28415736       3.78601980
N        0.87303730      -0.27709148       2.51870652
C        2.11968387       3.57910451       2.89521335
C        2.81819724       4.57476758       2.27061447
P        0.84439713       1.05860109      -4.42421346
H        0.54491950       0.49920793      -5.64761215
H        0.44141520       2.40503183      -4.39074119
H        3.17100033       6.28178205       0.13684606
H        2.35267949       3.39850062       3.93669008
H        0.80540413       0.60592737       4.82842984
H        0.84748762       1.29969148       3.36225493
H       -0.70422579      -1.08069212       4.82480845
H       -0.52569497      -2.26678096       3.76949996
H       -1.89320255      -4.38102106       2.37082309
H       -1.74826063      -4.32974652      -1.09580427
H       -1.81579574      -3.30472997      -3.52273063
H       -1.55932112      -1.30045606      -3.38247457
O        0.39052438       0.24345548      -1.82385092
C        0.85900861       1.41436274      -1.06095903
C        1.47230814       2.77439578      -1.51523639
H        1.26738508       3.68974569      -2.11236315
H        1.66658685       3.19824123      -0.52824495
H        2.48816469       2.43621066      -1.77901685
C       -0.33403471       1.68756710      -0.16982891
H       -0.44621153       2.68635015       0.24590310
H       -0.97180060       1.81264909      -1.06209345
H       -1.11158810       1.13335266       0.37041479
H       -0.84695179       2.07464030       2.35334962
H       -2.26553034      -2.15727473      -0.99424479
37
Properties=species:S:1:pos:R:3 comment="iter_0000 image=10 neb_iter=0 E=-70712.516636eV fmax=10.072" pbc="F F F"
Fe       0.49025156      -1.01461863      -0.47530455
C        1.39734494      -2.08925847       0.48041601
O        1.81929510      -3.14984491       0.48533073
P       -0.89787247      -1.97087436      -2.05896965
C       -1.98667071      -2.36513359      -0.47130191
C       -1.77205048      -2.19688294       1.23508943
N       -0.91089552      -1.29336660       1.72879104
C       -0.29200536      -0.95388303       3.04966554
C        0.67606983       0.28072393       3.11848177
N        1.45246291       0.24547319       1.90297429
C        2.46516191       2.18752992       1.89949726
C        3.27018243       3.01046815       1.00886066
P        1.62231947       0.73253742      -3.06976323
H        1.63550777       0.05260943      -4.30777340
H        0.98813902       1.84991154      -3.66689120
H        3.71610535       3.81606743       0.36144648
H        2.44733241       2.67162244       2.88044590
H        1.16471466       0.40051982       4.10186230
H        0.14059276       1.24188962       3.06375517
H       -0.95086655      -0.90700938       3.93260082
H        0.26214864      -1.88147902       3.26838151
H       -2.10088092      -2.97856664       1.94991446
H       -2.22120436      -3.42813633      -0.58260557
H       -1.35309242      -3.09430262      -2.86731214
H       -1.53359999      -1.09224456      -2.96320457
O       -0.16114707       0.63147160      -1.04026424
C       -0.26593264       1.67977209      -0.05036567
C        0.32089979       2.96020554      -0.71667575
H        1.38920092       3.09364220      -0.87423846
H        0.04821120       3.82890735      -0.08838862
H        0.07790462       3.31248124      -1.72453024
C       -1.80170479       1.90085042      -0.18230311
H       -2.09105838       2.85127718       0.29212179
H       -2.12480339       2.00300381      -1.21699163
H       -2.38672467       1.07709868       0.24067826
H       -0.39932834       1.71586344       1.12800059
H       -2.52389580      -1.36148470      -0.61783008
37
Properties=species:S:1:pos:R:3 comment="iter_0000 image=11 neb_iter=0 E=-70733.460509eV fmax=10.072" pbc="F F F"
Fe       0.30937033      -0.44921316      -0.22230248
C        1.47453633      -1.79515403      -0.03888920
O        2.21431418      -2.65441001       0.05657360
P       -1.21268731      -1.42802148      -1.49502419
C       -2.59547019      -1.58527198      -0.27242862
C       -2.05499091      -1.36929545       1.10718252
N       -0.85750229      -0.99613124       1.26767015
C       -0.24945345      -0.77191099       2.57857193
C        0.56235263       0.52311266       2.51686813
N        1.16797732       0.58242358       1.20958400
C        2.17275138       1.40242685       0.93459036
C        2.65391498       1.58200259      -0.34032897
P        1.73344071       0.67724572      -1.54530889
H        2.66070686       0.06575067      -2.41648296
H        1.14472295       1.55701858      -2.47356693
H        3.48006470       2.24215047      -0.55397196
H        2.62108925       1.95576397       1.76300740
H        1.30488626       0.52331165       3.32365574
H       -0.10438776       1.37511868       2.70101975
H       -0.99717021      -0.76483180       3.37569920
H        0.43320089      -1.60747621       2.74639720
H       -2.70997838      -1.53212295       1.96649772
H       -3.10251058      -2.54958548      -0.33642468
H       -1.21394210      -2.73266184      -2.04126306
H       -1.79336246      -0.74476152      -2.56743879
O       -1.07653630       0.89946198      -0.71537427
C       -1.54163106       1.92937812       0.10066938
C       -0.74731720       3.21609551      -0.12247678
H        0.31780124       3.04144824       0.02764713
H       -1.07362367       4.01046584       0.55580657
H       -0.89177929       3.56137245      -1.15011790
C       -3.02302613       2.17786363      -0.18510122
H       -3.40542971       3.02901484       0.38428731
H       -3.15934788       2.38374326      -1.24936458
H       -3.62631884       1.30444624       0.07379744
H       -1.46000430       1.66961037       1.17078081
H       -3.33354370      -0.81132019      -0.48780628
37
Properties=species:S:1:pos:R:3 comment="iter_0001 image=0 neb_iter=1 E=-70733.556883eV fmax=8.592" pbc="F F F"
Fe      -0.39371888      -0.25987191      -0.19210745
C       -1.71973550      -1.38254542       0.14722556
O       -2.57225780      -2.09570753       0.38495609
P       -1.64265479       0.85869252      -1.69806840
C       -2.41250159       2.05015570      -0.63229620
C       -2.01835637       1.93593719       0.67230567
N       -1.05947208       1.08319054       1.06269826
C       -0.89445680       0.69296663       2.45260529
C        0.45735014      -0.01070457       2.55470189
N        0.58743613      -0.85574531       1.38476015
C        1.47945204      -1.82837590       1.29010403
C        1.73206008      -2.50024007       0.11212723
P        0.74131889      -1.92104381      -1.22618486
H        0.02180681      -3.00720086      -1.76959649
H        1.55875973      -1.70769135      -2.35570311
H        2.40874299      -3.33990649       0.07009219
H        2.03756027      -2.10043742       2.18991503
H        0.53220405      -0.57955828       3.48756450
H        1.25080911       0.75213150       2.57801901
H       -0.94457229       1.55390932       3.12818747
H       -1.68121118      -0.00943230       2.75627155
H       -2.47278349       2.57337232       1.43371520
H       -3.12267274       2.79895848      -0.94917036
H       -2.66263307       0.24420383      -2.44951822
H       -1.02120936       1.53818161      -2.76702966
O        1.05250392       1.27750718      -0.50084486
C        2.45495814       1.25796722      -0.15125981
C        3.22752396       0.87603109      -1.39368673
H        2.95870706      -0.12481154      -1.72527469
H        4.29844960       0.88398915      -1.18671584
H        3.01865705       1.58467626      -2.19721115
C        2.84268095       2.62784393       0.37437573
H        3.89507919       2.64227166       0.66271735
H        2.68164621       3.38632608      -0.39477464
H        2.24851697       2.89139842       1.25345396
H        2.60707652       0.50046467       0.62335964
H        0.56808282       1.77892271       0.18501166
37
Properties=species:S:1:pos:R:3 comment="iter_0001 image=1 neb_iter=1 E=-70720.006013eV fmax=8.592" pbc="F F F"
Fe      -0.25970414      -0.49171848      -0.33736578
C       -3.39253577      -2.06741188       0.09842740
O       -4.33429696      -2.43898314       0.59571058
P       -1.83878727       0.23011162      -2.17766420
C       -2.35286036       1.17771160      -0.67145728
C       -2.21974109       0.88550107       0.69894986
N       -1.16482908       0.65024681       1.42944874
C       -1.11033737       0.27516612       2.86756923
C        0.43986699       0.29106395       3.05861599
N        0.83303014      -0.41115897       1.84949631
C        1.66197311      -1.40988284       1.75300204
C        1.78234013      -1.89168934       0.46009840
P        1.04496137      -1.44609685      -1.99853503
H        0.60818228      -2.58291713      -2.72664982
H        1.62995025      -0.83480186      -3.16058488
H        2.42826267      -2.64559276       0.11688224
H        2.35642445      -1.57938138       2.58418416
H        0.67108098      -0.28117756       3.96667585
H        1.10770787       1.17575806       3.06498338
H       -1.48592805       0.98329054       3.61834727
H       -1.66283778      -0.65488732       3.12462416
H       -3.06295081       0.94780999       1.37767653
H       -3.35368790       1.43674402      -0.97664803
H       -2.76033922      -0.68900384      -2.76293205
H       -1.50536485       1.05880716      -3.27855716
O        1.42119652       1.42264753      -0.61694140
C        2.83379462       1.43466992      -0.25043610
C        3.55565741       1.18258414      -1.58300600
H        3.13244716       0.35570844      -2.15225044
H        4.61817738       0.92529732      -1.48491454
H        3.50405127       2.06470631      -2.22789993
C        3.74755056       2.33970668       0.64938485
H        4.78648514       1.98477011       0.77044321
H        3.76115478       3.28796136       0.12092975
H        3.37124418       2.50838650       1.66308195
H        2.89319399       0.54959384       0.37371709
H        0.51087427       1.59704269      -0.20613259
37
Properties=species:S:1:pos:R:3 comment="iter_0001 image=2 neb_iter=1 E=-70701.751653eV fmax=8.592" pbc="F F F"
Fe      -0.02774237      -0.76595920      -1.01972084
C       -5.88193767      -1.84776596       0.05624393
O       -6.11164913      -2.55032434       0.90887869
P       -2.24897717       0.06999723      -2.87765967
C       -2.45355578       0.31418126      -0.39600805