37
Properties=species:S:1:pos:R:3 comment="iter_0143 image=0 neb_iter=501 E=-70733.556884eV fmax=0.387" pbc="F F F"
Fe      -0.39371888      -0.25987191      -0.19210745
C       -1.71973550      -1.38254542       0.14722556
O       -2.57225780      -2.09570753       0.38495609
P       -1.64265479       0.85869252      -1.69806840
C       -2.41250159       2.05015570      -0.63229620
C       -2.01835637       1.93593719       0.67230567
N       -1.05947208       1.08319054       1.06269826
C       -0.89445680       0.69296663       2.45260529
C        0.45735014      -0.01070457       2.55470189
N        0.58743613      -0.85574531       1.38476015
C        1.47945204      -1.82837590       1.29010403
C        1.73206008      -2.50024007       0.11212723
P        0.74131889      -1.92104381      -1.22618486
H        0.02180681      -3.00720086      -1.76959649
H        1.55875973      -1.70769135      -2.35570311
H        2.40874299      -3.33990649       0.07009219
H        2.03756027      -2.10043742       2.18991503
H        0.53220405      -0.57955828       3.48756450
H        1.25080911       0.75213150       2.57801901
H       -0.94457229       1.55390932       3.12818747
H       -1.68121118      -0.00943230       2.75627155
H       -2.47278349       2.57337232       1.43371520
H       -3.12267274       2.79895848      -0.94917036
H       -2.66263307       0.24420383      -2.44951822
H       -1.02120936       1.53818161      -2.76702966
O        1.05250392       1.27750718      -0.50084486
C        2.45495814       1.25796722      -0.15125981
C        3.22752396       0.87603109      -1.39368673
H        2.95870706      -0.12481154      -1.72527469
H        4.29844960       0.88398915      -1.18671584
H        3.01865705       1.58467626      -2.19721115
C        2.84268095       2.62784393       0.37437573
H        3.89507919       2.64227166       0.66271735
H        2.68164621       3.38632608      -0.39477464
H        2.24851697       2.89139842       1.25345396
H        2.60707652       0.50046467       0.62335964
H        0.56808282       1.77892271       0.18501166
37
Properties=species:S:1:pos:R:3 comment="iter_0143 image=1 neb_iter=501 E=-70731.832960eV fmax=0.387" pbc="F F F"
Fe       0.20169356       0.13533436      -0.06746501
C       -5.82455190      -2.22654025      -0.02388813
O       -5.69740329      -2.04882654       1.07955117
P       -1.41930544       0.48089856      -1.66564632
C       -2.86033620       0.56913422      -0.62415627
C       -2.55356779       0.35533958       0.68402625
N       -1.28775276       0.11771329       1.10472512
C       -1.03163302      -0.24860117       2.49202975
C        0.42533785       0.13457505       2.77173327
N        1.19416969      -0.23665604       1.59321465
C        2.03771238      -1.26573870       1.63847011
C        2.40575706      -1.98782500       0.52448458
P        1.41641736      -1.59458097      -0.88133084
H        0.82180468      -2.77800743      -1.36952908
H        2.27837373      -1.39991473      -1.98635500
H        3.14352004      -2.77404486       0.57695608
H        2.46497076      -1.54585207       2.60691425
H        0.80144152      -0.34922014       3.68108626
H        0.48066292       1.21909140       2.92526653
H       -1.73141495       0.24566407       3.17776605
H       -1.15013204      -1.33191216       2.62977856
H       -3.33530558       0.38665221       1.44679865
H       -3.85675656       0.80493213      -0.96330433
H       -1.66408890      -0.50555800      -2.64607007
H       -1.52370205       1.57325403      -2.56088594
O        1.60983049       1.47029995      -0.86965726
C        3.04132841       1.39256212      -0.64039598
C        3.75847865       1.72554436      -1.93322093
H        3.41298781       1.08682461      -2.74542505
H        4.83553468       1.59192194      -1.82194054
H        3.57428420       2.76813595      -2.20379548
C        3.44847280       2.30370310       0.49593777
H        4.51985057       2.20731973       0.67536217
H        3.25432433       3.34928762       0.23558610
H        2.91386189       2.04437334       1.40906658
H        3.21607330       0.35606725      -0.35095774
H        1.30705697       2.36553716      -0.68093180
37
Properties=species:S:1:pos:R:3 comment="iter_0143 image=2 neb_iter=501 E=-70726.703208eV fmax=0.387" pbc="F F F"
Fe       0.18634066      -0.30230490      -0.62339166
C       -4.47948342       0.56724386       0.99870070
O       -5.05980980      -0.39642260       1.01709154
P       -1.36847398       0.25868220      -1.92727733
C       -1.82676136      -1.13857685      -0.93422676
C       -1.70380464      -1.04752640       0.44897060
N       -1.11317787      -0.02611286       1.04188170
C       -1.02160021      -0.15408111       2.49009871
C        0.39228796      -0.35889546       2.99234970
N        0.95728269      -1.48777164       2.26412954
C        2.41121741      -1.47398740       2.14297967
C        1.81151587      -1.09402418       1.08688076
P        1.23540779      -1.36685938      -2.39648077
H        0.20514674      -1.82003983      -3.26300866
H        1.65709860      -0.37580640      -3.31286514
H        1.87627672      -0.85668751       0.02368666
H        3.23258423      -1.83430526       2.71745294
H        0.34850493      -0.63261377       4.04734916
H        1.02079574       0.53976846       2.91212315
H       -1.45956263       0.71436247       2.98715026
H       -1.58354249      -1.04282630       2.80322649
H       -2.06666184      -1.90810468       1.02315598
H       -2.25553531      -2.04047921      -1.33513699
H       -1.65190226      -0.10602251      -3.24427291
H       -2.29072165       1.29026556      -1.75396002
O        1.41567217       1.33025533      -0.25494517
C        2.84187467       1.55696574      -0.43540729
C        3.02645823       2.31506953      -1.73291242
H        2.51540751       1.81197223      -2.55149225
H        4.08557963       2.37884360      -1.98868752
H        2.62876720       3.32617262      -1.63990308
C        3.41014468       2.30129591       0.76166400
H        4.48491582       2.41855755       0.62166789
H        2.97143015       3.29695892       0.84979817
H        3.25726006       1.76924487       1.70566638
H        3.32962756       0.58071484      -0.51440752
H        1.23190532       1.34429505       0.69090734
37
Properties=species:S:1:pos:R:3 comment="iter_0143 image=3 neb_iter=501 E=-70724.541986eV fmax=0.387" pbc="F F F"
Fe       1.13011353       0.57804402       0.57411789
C       -5.25104411       0.89760145       1.81013449
O       -6.13499846       0.47132032       1.26094387
P       -0.60438290      -0.15474208      -2.10966008
C       -1.67629010      -0.62154499      -0.83634057
C       -1.49835713      -0.99722620       0.46927116
N       -0.50032742      -0.66772420       1.25069189
C       -0.57031230      -1.21745932       2.61758736
C        0.84226618      -1.19550879       3.27988436
N        1.66797483      -0.28945733       2.45517793
C        1.86206664      -0.87535151       1.35446459
C        1.07653975       2.39275311       0.35897338
P       -0.72155256      -1.66692317      -3.68912585
H       -0.54362029      -0.67844582      -4.68383810
H        0.58727656      -2.20365081      -3.76549469
H        0.66691987       3.40296410       0.60102738
H        1.60619452      -1.91184010       1.15172849
H        1.33392766      -2.16559902       3.16927726
H        0.82155434      -0.97733977       4.34447772
H       -1.31125189      -0.66743905       3.20818032
H       -0.93311119      -2.25582504       2.62352787
H       -2.28967301      -1.61393644       0.90780230
H       -2.64252065      -0.77854191      -1.29492287
H       -1.64428288       0.50237529      -2.83234438
H        0.28607700       0.90647300      -2.22782706
O        1.16452338      -0.59713071      -1.15283675
C        2.57896532       2.16956194       0.16118481
C        3.24209533       1.97481902      -1.23893939
H        2.71998885       1.18924147      -1.77917702
H        4.26952207       1.63136176      -1.06140356
H        3.34309450       2.85374169      -1.87791572
C        3.62556203       2.77905439       1.12046681
H        4.57801754       2.25451789       0.96173470
H        3.83428660       3.83415381       0.94281071
H        3.32852912       2.62111455       2.15617281
H        2.72692043       1.07958296       0.54208532
H        1.59145591      -1.46744488      -1.07075788
37
Properties=species:S:1:pos:R:3 comment="iter_0143 image=4 neb_iter=501 E=-70727.575887eV fmax=0.387" pbc="F F F"
Fe       0.75506822       0.01600577      -0.31064387
C       -5.56359585       1.03580627       1.33952990
O       -6.10063715       0.09157622       1.63118173
P       -2.83596371      -0.40102233      -1.55125027
C       -1.55566158      -1.42441975      -0.77032455
C       -1.45842716      -1.67098267       0.54277595
N       -2.23332988      -0.94335752       1.45477535
C       -2.60477800      -1.51964632       2.51461480
C        1.33030574      -0.44842899       2.69814798
N        0.83055489       0.13861003       1.69744113
C        0.26730073       1.43887197       1.64720472
C       -0.00448671       1.68320947       0.35937659
P        1.06170701      -0.72441725      -2.36439414
H        0.02835105      -1.29065896      -3.14130974
H        1.94303022      -0.36532499      -3.39760420
H       -0.49933815       2.58455918       0.01063083
H        0.15040644       2.00401371       2.57001440
H        1.39560777       0.00721788       3.68501487
H        1.74771033      -1.43873510       2.55872084
H       -2.35303452      -2.55788612       2.75957227
H       -3.22731089      -0.96220855       3.20488632
H       -0.88005997      -2.51699955       0.91945373
H       -1.03776270      -2.09701107      -1.44031669
H       -1.98884959       0.29976591      -2.43171842
H       -2.96209863       0.61231951      -0.58039881
O        2.82568991       0.42589506       0.00990958
C        3.58078516       1.61551467      -0.31942734
C        3.90346583       1.56968654      -1.80279034
H        3.03929341       1.84353763      -2.40699211
H        4.73430066       2.21500139      -2.07035284
H        4.17682583       0.54910297      -2.08035463
C        4.76198191       1.65929090       0.63617976
H        5.48848670       2.42701372       0.37571882
H        5.27439324       0.69706316       0.65888758
H        4.39118778       1.84548580       1.64369884
H        2.91061476       2.44625423      -0.10250513
H        3.26818493      -0.30426740      -0.44665571
37
Properties=species:S:1:pos:R:3 comment="iter_0143 image=5 neb_iter=501 E=-70730.835217eV fmax=0.387" pbc="F F F"
Fe       0.15069169      -0.03293220       0.03190493
C       -4.34972016      -0.71098206       0.74780012
O       -4.28947044      -1.82384926       0.59115874
P       -1.74689591      -1.38295716      -1.91251462
C       -0.67838861      -2.03039101      -0.58722554
C       -0.93877304      -1.82632890       0.78692002
N       -1.23498876      -0.60722284       1.18474973
C       -1.20003685      -0.13944399       2.56310495
C        0.14021238       0.60630447       2.76548006
N        0.54866481       1.19471860       1.49940935
C        0.41054968       2.50895103       1.31328006
C        0.22751176       3.07393663       0.07616224
P       -0.22321914       1.87284881      -1.14471565
H       -1.49993871       2.20647881      -1.64472642
H        0.47918313       2.16847708      -2.33610238
H        0.20056685       4.14659190      -0.04737622
H        0.45033590       3.15356721       2.19643643
H        0.03506814       1.36416208       3.55033779
H        0.90150649      -0.10932027       3.09600801
H       -1.31209239      -0.95933494       3.28140190
H       -2.02891352       0.55599474       2.70992668
H       -0.70638482      -2.62278936       1.50353592
H       -0.17913880      -2.97230885      -0.79247455
H       -2.24605418      -2.61816324      -2.42395131
H       -0.78725993      -1.29344967      -2.95663222
O        2.04653602      -0.30208552      -0.64269991
C        3.19970532       0.50780191      -0.31760642
C        3.91803723       0.90925756      -1.58743170
H        3.24446859       1.44843920      -2.25393728
H        4.76324210       1.55889407      -1.35905017
H        4.30660110       0.02713946      -2.10559430
C        4.05820304      -0.28323082       0.64987802
H        4.89877526       0.30208279       1.02489175
H        4.45536274      -1.17213085       0.15268255
H        3.45164151      -0.60818532       1.49538989
H        2.76765772       1.38641855       0.16253274
H        2.19952006      -0.87303311      -1.40180581
37
Properties=species:S:1:pos:R:3 comment="iter_0143 image=6 neb_iter=501 E=-70733.523103eV fmax=0.387" pbc="F F F"
Fe      -1.42145484      -0.17169292      -0.09963693
C       -3.02102944      -0.82925781       0.27026484
O       -4.04097525      -1.27671491       0.49839769
P       -1.13156809      -1.74504452      -1.69707526
C       -0.23913541      -2.96705957      -0.77176085
C       -0.10705615      -2.64640217       0.55381657
N       -0.47359400      -1.45214062       1.03799153
C       -0.66931880      -1.19333695       2.45433333
C       -0.61443304       0.32409308       2.63308687
N       -1.36735108       0.90413801       1.53617925
C       -1.76549265       2.16826238       1.51755161
C       -2.27847439       2.77266168       0.38838290
P       -2.32907228       1.68890343      -1.00211731
H       -3.63675343       1.66730405      -1.52904875
H       -1.73476736       2.31811119      -2.11932713
H       -2.64671974       3.78655614       0.40769224
H       -1.67519496       2.75506712       2.43593383
H       -1.00481840       0.61844359       3.61425788
H        0.43985914       0.64303707       2.59762567
H        0.08134251      -1.69590007       3.07547617
H       -1.65708595      -1.54941331       2.77679484
H        0.34050617      -3.36659122       1.24288289
H        0.14471794      -3.89144412      -1.17508387
H       -2.22757763      -2.39267509      -2.30488746
H       -0.41710628      -1.45615350      -2.87549159
O        0.57486810       0.36293226      -0.56757751
C        1.25921127       1.53075907      -0.05661376
C        1.33178415       2.56420608      -1.15747350
H        0.34093134       2.79900145      -1.54575424
H        1.75914610       3.48871348      -0.76403422
H        1.96056022       2.19950047      -1.97120596
C        2.62763699       1.08529997       0.42213162
H        3.18909098       1.92431781       0.83172076
H        3.19370610       0.65755797      -0.40831234
H        2.53796273       0.32147350       1.19942626
H        0.66528960       1.92694774       0.76821158
H        0.82273046      -0.38878954       0.00693151
37
Properties=species:S:1:pos:R:3 comment="iter_0143 image=7 neb_iter=501 E=-70729.401681eV fmax=0.387" pbc="F F F"
Fe      -1.10314239      -0.16959418      -0.75588442
C       -2.83286958      -0.13945861      -0.24418988
O       -3.93608298      -0.16793181       0.04688771
P       -1.00978849      -2.00522139      -1.85971715
C        0.20059447      -2.98846055      -0.86069504
C       -0.02061201      -2.57240523       0.55562678
N       -0.54068918      -1.44447860       0.81410732
C       -0.87519474      -1.13615500       2.19953588
C       -0.46736251       0.77985273       3.41489342
N       -0.96251719       0.29229472       2.36701038
C        2.39325416       4.31344174       3.04764215
C        2.17764005       4.66935190       1.92639935
P       -1.77879497       1.07873145      -2.58214917
H       -3.09369765       0.61899165      -2.87943037
H       -1.15936310       0.38414046      -3.65169757
H        2.02512226       5.01324684       0.93062832
H        2.63127985       4.03264180       4.04587694
H        0.01246191       0.17919835       4.19612618
H       -0.49142561       1.85339655       3.56125289
H       -0.15919958      -1.60322432       2.88906519
H       -1.87112588      -1.54431153       2.38963749
H        0.24022450      -3.26980566       1.35667334
H        0.14922243      -4.07227423      -0.97870314
H       -2.08213061      -2.90280295      -2.01623899
H       -0.45336884      -2.06346400      -3.14094968
O        0.75605403      -0.04767448      -1.27703112
C        0.95291070       1.09331277      -0.52176100
C        1.45075672       2.25893122      -1.37815296
H        0.82535067       2.33577460      -2.26482807
H        1.43269444       3.21786753      -0.85124853
H        2.48095081       2.05568415      -1.68393640
C        1.89231721       0.82740228       0.65730743
H        2.00160333       1.68093300       1.33287185
H        2.87695898       0.57434546       0.25420911
H        1.54419738      -0.03450875       1.22436126
H       -0.05619542       1.45261830      -0.09779780
H        1.19680150      -2.65228615      -1.16191041
37
Properties=species:S:1:pos:R:3 comment="iter_0143 image=8 neb_iter=501 E=-70725.584708eV fmax=0.387" pbc="F F F"
Fe      -1.23011847      -0.44502444      -2.47050523
C       -2.52404726      -0.60014919      -1.22836656
O       -3.34689388      -0.69685021      -0.44813173
P       -1.37633663      -2.46865491      -3.17634560
C       -0.27021768      -2.09500694      -1.84017456
C       -0.64851562      -1.96240373       2.18472317
N       -0.71936954      -2.21299976       3.38261973
C       -0.74760261      -2.31943246       4.64460341
C        0.97514333       0.78008558       3.71713593
N        0.10579938       1.67036217       3.49239283
C        1.86990495       4.18427217       2.62887130
C        2.61831832       4.80344338       1.92808347
P        0.27854992       0.04690270      -4.14062470
H       -0.03975721      -0.84091111      -5.19097192
H       -0.59983302       1.05931204      -4.61165894
H        3.25466466       5.36894374       1.29092547
H        1.17673725       3.61234937       3.21185988
H        1.87147524       1.05869007       4.27437148
H        0.88724202      -0.24939834       3.36510059
H       -0.00567594      -2.91264395       5.16514868
H       -1.54721198      -1.83582660       5.19041952
H       -1.20816306      -2.66742639       1.55448001
H       -0.45250988      -2.54406764      -0.86618403
H       -2.31787519      -3.46002260      -2.85207638
H       -0.74012711      -3.01192342      -4.29676862
O       -0.53889932       1.27609454      -1.74507945
C        0.35458623       1.66726987      -1.00480037
C        0.80539133       3.08862359      -1.13980753
H        0.15106229       3.62767913      -1.82106051
H        0.87314378       3.60039364      -0.17910533
H        1.80747172       3.05721253      -1.57633609
C        1.02949853       0.77207850      -0.01212548
H        0.99487914       1.23974535       0.97377613
H        2.08896373       0.66892644      -0.26157506
H        0.56945905      -0.21283427       0.03628269
H       -0.67515423       1.28840422       2.95511745
H        0.78413493      -2.10621750      -2.10388510
37
Properties=species:S:1:pos:R:3 comment="iter_0143 image=9 neb_iter=501 E=-70727.477706eV fmax=0.387" pbc="F F F"
Fe       0.29790484      -1.33227052      -2.37850497
C        0.55753492      -2.37133912      -0.96512234
O        0.60155551      -2.95795921       0.01562590
P       -1.15574325      -2.62191679      -3.31512538
C       -1.64829992      -1.55240846      -1.98814266
C       -1.64929874      -2.32774529       1.76307391
N       -1.99376056      -1.25104225       1.94464672
C        0.25740360      -1.18758254       4.65779608
C        0.39390435       0.89611227       3.68615004
N        1.02653479      -0.26331470       4.28868557
C        2.45963729       4.18198912       2.80021453
C        2.53975858       5.00532649       1.93644790
P        0.30178109       0.02828119      -4.24993960
H       -0.80554280      -0.23455590      -5.08352242
H       -0.21921556       1.27638081      -3.82846258
H        2.63925914       5.74538377       1.17889703
H        2.40734006       3.45249664       3.57289379
H        0.44920441       1.72406884       4.39637876
H        0.96094069       1.17201990       2.79590580
H       -0.82572772      -1.12241741       4.52679372
H        0.66967107      -2.07779361       5.12554887
H       -1.31392930      -3.32835443       1.59385592
H       -1.97516614      -2.06144010      -1.08402508
H       -1.44544229      -3.96990593      -3.03086066
H       -1.85573109      -2.41468622      -4.51238590
O        1.14271683       0.22134008      -1.46821317
C        0.79786837       1.22953601      -0.87005322
C        1.75532931       2.36856944      -0.71599550
H        1.29346712       3.26292542      -1.14424342
H        1.92216636       2.58473851       0.34166252
H        2.69768621       2.16917024      -1.21870472
C       -0.58120089       1.39545983      -0.32056116
H       -0.61343851       2.21554416       0.39291029
H       -1.24663336       1.62954469      -1.15543091
H       -0.94051574       0.47427058       0.13767143
H       -0.65723412       0.73533522       3.41450543
H       -2.22498985      -0.66663258      -2.22622447
37
Properties=species:S:1:pos:R:3 comment="iter_0143 image=10 neb_iter=501 E=-70726.470854eV fmax=0.387" pbc="F F F"
Fe       0.77743367      -0.92463708       0.17179591
C        1.48940218      -2.62977723       0.04176508
O        1.96580315      -3.65242218      -0.00128153
P       -0.44705187      -1.65922466      -1.80144123
C       -2.02754518      -2.11431138      -0.62198094
C       -1.77787412      -1.95515674       0.82561039
N       -0.68406120      -1.48090745       1.27080796
C       -0.37792511      -1.33420688       2.70130582
C        0.75123584      -0.30408441       2.74976826
N        1.58325158      -0.45077509       1.57417590
C        2.56672604       3.65431442       2.68552047
C        2.67727264       4.45506848       1.80413595
P        1.38864692      -0.93257402      -3.23250924
H        0.93877861      -1.34321494      -4.52303969
H        0.81328136       0.35913358      -3.33426486
H        2.77676301       5.19838564       1.04961717
H        2.50042346       2.97973250       3.50504985
H        1.32043953      -0.36394153       3.68362639
H        0.34665803       0.71730509       2.69204374
H       -1.26429405      -1.05813919       3.27718502
H       -0.00194902      -2.28527269       3.09079272
H       -2.52476841      -2.27627002       1.55739063
H       -2.39059702      -3.13229189      -0.79437227
H       -0.49543595      -2.95118006      -2.36140328
H       -1.30591918      -0.86912434      -2.58258801
O        0.14603567       0.58451787      -0.63169423
C        0.11769218       1.86466314      -0.05011332
C        0.80164928       2.85083065      -0.98062596
H        1.83779374       2.57925536      -1.17948826
H        0.77394107       3.84737359      -0.53795798
H        0.26895158       2.87399359      -1.93242791
C       -1.32525901       2.27543630       0.18672274
H       -1.37582827       3.26372799       0.64754587
H       -1.85870647       2.30327006      -0.76617377
H       -1.81949202       1.55003702       0.83546933
H        0.64305995       1.87022135       0.91668836
H       -2.85321829      -1.45719762      -0.91948050
37
Properties=species:S:1:pos:R:3 comment="iter_0143 image=11 neb_iter=501 E=-70733.460507eV fmax=0.387" pbc="F F F"
Fe       0.30937033      -0.44921316      -0.22230248
C        1.47453633      -1.79515403      -0.03888920
O        2.21431418      -2.65441001       0.05657360
P       -1.21268731      -1.42802148      -1.49502419
C       -2.59547019      -1.58527198      -0.27242862
C       -2.05499091      -1.36929545       1.10718252
N       -0.85750229      -0.99613124       1.26767015
C       -0.24945345      -0.77191099       2.57857193
C        0.56235263       0.52311266       2.51686813
N        1.16797732       0.58242358       1.20958400
C        2.17275138       1.40242685       0.93459036
C        2.65391498       1.58200259      -0.34032897
P        1.73344071       0.67724572      -1.54530889
H        2.66070686       0.06575067      -2.41648296
H        1.14472295       1.55701858      -2.47356693
H        3.48006470       2.24215047      -0.55397196
H        2.62108925       1.95576397       1.76300740
H        1.30488626       0.52331165       3.32365574
H       -0.10438776       1.37511868       2.70101975
H       -0.99717021      -0.76483180       3.37569920
H        0.43320089      -1.60747621       2.74639720
H       -2.70997838      -1.53212295       1.96649772
H       -3.10251058      -2.54958548      -0.33642468
H       -1.21394210      -2.73266184      -2.04126306
H       -1.79336246      -0.74476152      -2.56743879
O       -1.07653630       0.89946198      -0.71537427
C       -1.54163106       1.92937812       0.10066938
C       -0.74731720       3.21609551      -0.12247678
H        0.31780124       3.04144824       0.02764713
H       -1.07362367       4.01046584       0.55580657
H       -0.89177929       3.56137245      -1.15011790
C       -3.02302613       2.17786363      -0.18510122
H       -3.40542971       3.02901484       0.38428731
H       -3.15934788       2.38374326      -1.24936458
H       -3.62631884       1.30444624       0.07379744
H       -1.46000430       1.66961037       1.17078081
H       -3.33354370      -0.81132019      -0.48780628
