37
Properties=species:S:1:pos:R:3 comment="conf_01911 region=ts E=-70724.030989eV" pbc="F F F"
Fe      -0.48700257      -0.10047445      -0.10775308
C       -2.25951359      -0.07571980       0.19325185
O       -3.41266539      -0.05586049       0.37891604
P       -0.08071391      -1.59044877      -1.65874802
C       -0.39886407      -2.99517428      -0.51864277
C       -0.57515177      -2.76290861       0.90417458
N       -0.27721876      -1.51526789       1.13480808
C       -0.09681640      -1.10896644       2.51972002
C        0.05200745       0.42281304       2.58884336
N       -0.25369320       1.00870339       1.29407111
C       -0.24389768       2.34311034       1.14143164
C       -0.44736508       2.93203429      -0.10099200
P       -0.83301334       1.67342652      -1.29862431
H       -2.10439947       2.06373785      -1.81775886
H       -0.17355957       2.02774780      -2.51366185
H       -0.85731257       3.94024232      -0.19852756
H       -0.00775059       3.04491859       1.96026722
H       -0.64168375       0.84274912       3.34521325
H        1.10428423       0.72150313       2.79510201
H        0.84537416      -1.53974428       2.90911595
H       -0.78643327      -1.38790234       3.33819730
H       -0.82287417      -3.45695871       1.72622361
H       -0.78881982      -3.86830444      -1.05812423
H       -0.81486851      -2.37436239      -2.59763037
H        1.21468628      -1.65919668      -2.23975982
O        1.37673525       0.02323436      -0.68862477
C        2.53806198       0.60751106      -0.09797450
C        3.33792308       1.39837956      -1.13745952
H        2.66844212       2.12633706      -1.62476541
H        4.08484205       1.79806249      -0.42725388
H        3.68601566       0.68501841      -1.90600277
C        3.31009730      -0.48634306       0.65018061
H        4.20668471      -0.14630159       1.19814076
H        3.49184980      -1.30209963      -0.07345057
H        2.54516268      -0.86045164       1.35311289
H        2.20532945       1.37316713       0.62789851
H        9.45510292       1.74489666      -5.60421618
37
Properties=species:S:1:pos:R:3 comment="conf_01912 region=ts E=-70723.848726eV" pbc="F F F"
Fe      -0.41071827      -0.05928532      -0.08230937
C       -2.21758938      -0.24409577       0.22106810
O       -3.37808113      -0.32977338       0.32374674
P       -0.52339051      -1.84656727      -1.52695861
C       -0.96939573      -3.17980327      -0.34464124
C       -0.74919807      -2.79302999       1.03787577
N       -0.25330830      -1.60055857       1.21299990
C       -0.12753810      -1.15371423       2.59144792
C       -0.44326073       0.35411907       2.59718250
N       -0.08346560       1.03417078       1.36379988
C       -0.41012920       2.33291184       1.26084749
C       -0.48588819       2.95562671       0.02055171
P       -0.54790668       1.73332780      -1.27145459
H       -1.69702826       2.29455072      -1.90613147
H        0.45049323       2.03258686      -2.24632929
H       -0.51782434       4.01817456      -0.23248118
H       -0.50664303       2.95350346       2.16878088
H       -1.53310448       0.53855653       2.68591029
H        0.04727685       0.93139496       3.41276217
H        0.85810465      -1.16917304       3.09462895
H       -0.87750983      -1.62002753       3.25731278
H       -0.82787494      -3.56263012       1.82550646
H       -1.51448776      -4.11113408      -0.54702601
H       -0.76641490      -2.16137247      -2.89693687
H        0.75857466      -2.44284254      -1.67319051
O        1.36344581       0.43977617      -0.77995248
C        2.65581854       0.72252544      -0.24259566
C        3.56844571       1.24304301      -1.35702509
H        3.07609467       2.16386667      -1.71095751
H        4.62662331       1.34551513      -1.05406291
H        3.50390862       0.35554086      -2.01191913
C        3.09030350      -0.39631861       0.71223534
H        3.77344408       0.18638401       1.35530152
H        3.54201762      -1.22037610       0.12998244
H        2.25178857      -0.70435456       1.36123654
H        2.37846732       1.57145436       0.41026555
H       18.10089186       6.14326068     -11.39515899
37
Properties=species:S:1:pos:R:3 comment="conf_01913 region=ts E=-70724.092897eV" pbc="F F F"
Fe      -0.66279333      -0.17957596       0.00702865
C       -2.34620791      -0.34226055       0.11040818
O       -3.51285190      -0.40197566       0.10965404
P       -0.94649968      -1.81871127      -1.55047774
C       -0.63966936      -3.10355490      -0.27401966
C       -0.28526204      -2.59037639       1.03764993
N       -0.18578547      -1.31947333       1.30870902
C       -0.16691443      -0.89758690       2.70056487
C       -0.90239741       0.45596481       2.71597568
N       -0.65073804       1.06907267       1.42217433
C       -0.18724794       2.31102319       1.20590472
C        0.24287130       2.77667737      -0.03103123
P       -0.26219530       1.59220037      -1.25947057
H       -1.29733708       2.35816366      -1.87595095
H        0.50593681       1.74398890      -2.45264800
H        0.84663087       3.68556323      -0.08980589
H       -0.02089999       2.93403460       2.10199464
H       -2.00709831       0.35962381       2.71409182
H       -0.55911237       1.05048744       3.59218514
H        0.86670436      -0.60496528       2.96688529
H       -0.55293631      -1.65461853       3.40849986
H        0.00759536      -3.37299605       1.75916051
H       -0.64555891      -4.19487982      -0.39417449
H       -2.28526781      -2.10697059      -1.94999003
H       -0.14841977      -1.86805094      -2.72563589
O        1.23860731       0.39270986      -0.47507051
C        2.61001763       0.61596336      -0.14595293
C        3.43851873       1.15069430      -1.31788662
H        3.01286410       2.06136238      -1.77076155
H        4.38381268       1.49410918      -0.85907075
H        3.50958072       0.39987410      -2.12530877
C        3.13848955      -0.54909936       0.70000082
H        4.20651739      -0.52619249       0.98026731
H        2.95255098      -1.50249898       0.17218376
H        2.35537767      -0.50608336       1.47722755
H        2.59026662       1.46498360       0.56299440
H       26.19966126      10.26512249     -16.81504318
37
Properties=species:S:1:pos:R:3 comment="conf_01914 region=ts E=-70724.597190eV" pbc="F F F"
Fe      -0.80055642      -0.06404048       0.04346052
C       -2.61774587      -0.19073197       0.07485591
O       -3.77327532      -0.17759437      -0.09603520
P       -0.60987510      -1.74622134      -1.38522036
C        0.14138366      -2.90456269      -0.17354017
C       -0.16519743      -2.53711563       1.19774558
N       -0.45336545      -1.28193795       1.39787417
C       -0.35514176      -0.80362034       2.76797321
C       -0.72800614       0.69020071       2.82037346
N       -0.52010895       1.14779297       1.45635599
C       -0.00441630       2.35232891       1.16107484
C        0.29515659       2.76818063      -0.13088890
P       -0.48127402       1.65597014      -1.28296728
H       -1.34588606       2.57177704      -1.95528421
H        0.44896934       1.41560152      -2.33824415
H        0.54519554       3.79221769      -0.41878153
H        0.35606403       3.03391103       1.95119616
H       -1.76214989       0.75561736       3.21523619
H        0.02106064       1.21566720       3.45427309
H        0.72404948      -0.87306691       3.00344131
H       -0.87153493      -1.46178146       3.49146735
H        0.11838067      -3.17546133       2.05269282
H        0.44282447      -3.92913291      -0.42819939
H       -1.62020074      -2.58363216      -1.94467440
H        0.18604052      -2.13312837      -2.49750807
O        1.06035846      -0.24604028      -0.69897289
C        2.25296232       0.09152018       0.01002340
C        3.06571891       1.04055538      -0.87571854
H        2.49091236       1.95368691      -1.10239490
H        4.05805799       1.32273377      -0.47864811
H        3.34352906       0.61837980      -1.85821567
C        2.78468681      -1.29405761       0.39697908
H        3.82141270      -1.36099355       0.77178105
H        2.65056312      -1.97966929      -0.45980695
H        2.22755759      -1.68419150       1.26680583
H        2.17099918       0.70025879       0.93010553
H       33.80770080      14.13741023     -21.90460159
37
Properties=species:S:1:pos:R:3 comment="conf_01915 region=ts E=-70724.275800eV" pbc="F F F"
Fe      -0.84303938      -0.06011540       0.04564925
C       -2.61617311       0.04229054       0.11796609
O       -3.77674105       0.16879759       0.07670254
P       -0.45886912      -1.72001879      -1.25834962
C       -0.06819765      -3.06075948      -0.06499155
C       -0.18159583      -2.51627133       1.27668926
N       -0.64542795      -1.31417389       1.47260949
C       -0.55079662      -0.72547192       2.79929026
C       -0.59042899       0.81277603       2.72514548
N       -0.51329343       1.23591176       1.33656282
C        0.01990153       2.40478983       0.94481820
C       -0.10271545       2.76642974      -0.39160557
P       -0.89126805       1.51827678      -1.38530583
H       -1.60231291       2.40570908      -2.24852390
H        0.18076504       1.48292918      -2.32670621
H        0.19564381       3.71645592      -0.84158950
H        0.53732292       3.00372767       1.71445479
H       -1.51750588       1.19422756       3.19914162
H        0.22453469       1.09711642       3.42801782
H        0.40953130      -0.98487958       3.28447035
H       -1.37393657      -1.18919868       3.37433792
H        0.16326267      -3.04529104       2.18225388
H        0.26294946      -4.07739983      -0.31448300
H       -1.45911501      -2.32949191      -2.07263108
H        0.48838900      -1.15271689      -2.15346595
O        1.03734996      -0.30442838      -0.36315310
C        2.33758947      -0.29544860       0.22695144
C        3.25895266       0.82080079      -0.27390486
H        2.69694195       1.72033228       0.02706189
H        4.27051817       0.85461369       0.17063800
H        3.45693558       0.84740684      -1.36055392
C        2.97360636      -1.65887554      -0.07111054
H        3.92010670      -1.86862644       0.45794445
H        3.17800429      -1.83000351      -1.14399056
H        2.31431606      -2.46006687       0.30654636
H        2.34054687      -0.17166516       1.32626973
H       40.96950045      17.78272556     -26.69478611
37
Properties=species:S:1:pos:R:3 comment="conf_01916 region=ts E=-70724.720735eV" pbc="F F F"
Fe      -0.68851510      -0.08872927      -0.00014312
C       -2.34503940       0.12596409       0.16645416
O       -3.46275105       0.15402287       0.50491842
P       -0.71426322      -1.93059627      -1.18508522
C       -0.53233021      -3.17567578       0.15319378
C       -0.40158106      -2.49740351       1.43080299
N       -0.56709360      -1.20493281       1.45703909
C       -0.84487957      -0.59141588       2.74623996
C       -0.40277991       0.88329545       2.69101945
N       -0.34720191       1.31501998       1.30405132
C       -0.39694371       2.59942290       0.91434431
C       -0.57713674       3.03355703      -0.39367134
P       -0.55682681       1.62074192      -1.47565202
H       -1.32931302       1.95944147      -2.62752614
H        0.62052481       1.47185613      -2.26837848
H       -0.29904226       4.08119409      -0.53214011
H       -0.32361139       3.40117985       1.66972509
H       -1.07261456       1.52023887       3.30361541
H        0.59488734       0.99184505       3.17260209
H       -0.33674520      -1.27384433       3.45406243
H       -1.94721238      -0.64461287       2.81913851
H       -0.14423754      -3.07016999       2.33885002
H       -0.54389114      -4.26490808       0.01571164
H       -1.78002431      -2.40733042      -2.00476898
H        0.30806718      -2.40164021      -2.05302578
O        1.01460607      -0.61173068      -0.51737492
C        2.19951657      -0.70608693       0.27383352
C        2.59327625       0.77303480       0.32798227
H        1.86349339       1.45842473       0.78977393
H        3.43684358       0.86816731       1.03605741
H        2.74818205       1.16826133      -0.69207238
C        3.20340072      -1.63434000      -0.42104366
H        4.21386241      -1.69445938       0.02066930
H        3.43706872      -1.20284512      -1.41167290
H        2.79872485      -2.62864504      -0.67948302
H        2.01408147      -1.15386249       1.26828948
H       47.73525291      21.22661906     -31.21963652
37
Properties=species:S:1:pos:R:3 comment="conf_01917 region=ts E=-70724.539437eV" pbc="F F F"
Fe      -0.77347019      -0.04997901      -0.00304840
C       -2.54661855       0.19027367       0.31832564
O       -3.67994883       0.22648399       0.59917427
P       -0.76055949      -1.95488648      -1.21377418
C       -0.65064980      -3.06989451       0.24190100
C       -0.70753393      -2.44300463       1.55079638
N       -0.97942136      -1.16996912       1.61420800
C       -1.04028468      -0.40430986       2.84938754
C       -0.13590246       0.82208419       2.62283645
N       -0.35235523       1.22137837       1.24194256
C       -0.44267540       2.52042934       0.91278364
C       -0.56987355       2.79850203      -0.44307149
P       -0.43038788       1.36027347      -1.48190913
H       -1.24338420       1.73547876      -2.59390027
H        0.89613932       1.54349737      -1.97535990
H       -0.78634308       3.70239479      -1.01767780
H       -0.51033057       3.36294287       1.62298483
H       -0.34053876       1.58701531       3.39914411
H        0.91344341       0.46099778       2.70963893
H       -0.75010408      -0.91102731       3.78957604
H       -2.10439131      -0.13729958       2.98961705
H       -0.57410921      -3.07302129       2.44752007
H       -0.45106412      -4.14854785       0.19570047
H       -1.75901810      -2.68911905      -1.92016396
H        0.13692468      -2.42496570      -2.21072469
O        1.06421820      -0.52417356      -0.49836477
C        2.24686438      -0.78962864       0.25649176
C        2.84734584       0.53437864       0.73836996
H        1.95480340       1.16403649       0.88834635
H        3.49221448       0.59754926       1.63401517
H        3.39303084       1.02858208      -0.08546385
C        3.25091881      -1.41185440      -0.72177266
H        4.18649580      -1.45074985      -0.13616156
H        3.24813157      -0.70008056      -1.56764798
H        2.90158033      -2.43206476      -0.95911090
H        2.10418504      -1.46160069       1.12362956
H       54.14682152      24.49035065     -35.50737840
37
Properties=species:S:1:pos:R:3 comment="conf_01918 region=ts E=-70724.990831eV" pbc="F F F"
Fe      -0.89647511      -0.12640706       0.08971124
C       -2.60932304       0.24856578       0.13523421
O       -3.77471515       0.32840894       0.12470010
P       -0.76961609      -2.00006545      -1.10243306
C       -0.52676677      -3.14866494       0.31038565
C       -0.62529337      -2.48709964       1.59959384
N       -0.81937985      -1.19838397       1.58931680
C       -0.95741852      -0.53176182       2.87468337
C       -0.58946788       0.95543815       2.71305569
N       -0.54797509       1.31736443       1.30577345
C        0.03681457       2.45606305       0.89905092
C        0.14131774       2.71698325      -0.46214218
P       -0.68004209       1.42344021      -1.36726964
H       -1.83304739       2.05503919      -1.92398125
H       -0.12789704       1.39179070      -2.68289620
H        0.32839383       3.68994962      -0.92300285
H        0.37047149       3.28036907       1.55325627
H       -1.38969387       1.57681173       3.16381333
H        0.41078952       1.15222914       3.16004927
H       -0.26826938      -1.02858433       3.58402295
H       -1.98793864      -0.59221429       3.27174194
H       -0.53002376      -3.03304915       2.55442333
H       -0.25388822      -4.20648851       0.20080201
H       -1.84559914      -2.69798899      -1.72706641
H        0.43194914      -2.23307294      -1.82514403
O        0.91083430      -0.48147395      -0.49879072
C        2.12443617      -0.67957507       0.22705583
C        2.92733747       0.56583056       0.61447571
H        2.40693702       1.25433591       1.30057897
H        3.88689798       0.19492851       1.01907641
H        3.28029902       1.01757859      -0.33000995
C        2.99917233      -1.69140354      -0.52349814
H        3.93612639      -1.92439661       0.01277495
H        3.13644542      -1.19798482      -1.50320672
H        2.44370084      -2.64069809      -0.62090079
H        1.85842877      -1.13220441       1.20081069
H       60.25703733      27.60077243     -39.59344182
37
Properties=species:S:1:pos:R:3 comment="conf_01919 region=ts E=-70724.293267eV" pbc="F F F"
Fe      -1.12526660      -0.02329725       0.16807173
C       -2.87092774       0.15414193       0.02026314
O       -4.01477411       0.20564368      -0.21122707
P       -0.89532315      -1.90093863      -0.92227584
C       -0.24836829      -3.15801013       0.25055577
C       -0.31811097      -2.43947891       1.51082668
N       -0.83781520      -1.24887456       1.61538302
C       -0.81871108      -0.59505391       2.91452142
C       -0.67973042       0.93670268       2.82687991
N       -0.45620047       1.30997469       1.43984786
C        0.19279520       2.39510827       0.98671831
C        0.30892933       2.59595849      -0.38368999
P       -0.41829897       1.31334732      -1.38027858
H       -1.37876152       1.95897613      -2.21630575
H        0.51120022       0.93037465      -2.39324564
H        1.08517687       3.31471791      -0.65732876
H        0.58537820       3.11885606       1.72214991
H       -1.60071468       1.41576421       3.21667115
H        0.15725665       1.32880978       3.44716166
H        0.01913522      -0.97417272       3.53031706
H       -1.82343289      -0.70825444       3.36285325
H        0.03657284      -2.93398973       2.43196456
H        0.31621301      -4.07784278       0.04901703
H       -1.90838307      -2.53572276      -1.70058318
H       -0.28332990      -1.85270183      -2.20426653
O        0.68578392      -0.53359375      -0.41416787
C        1.92991159      -0.63457567       0.27928418
C        2.87730993       0.56010606       0.13453680
H        2.61160521       1.32317655       0.88468236
H        3.84034863       0.10138121       0.42463059
H        2.68497914       1.02365004      -0.84976354
C        2.66782394      -1.90913019      -0.14883681
H        3.49005525      -2.19239632       0.53193736
H        3.17535744      -1.73236732      -1.11491106
H        1.91989398      -2.69525843      -0.35328525
H        1.75491025      -0.76406457       1.36392188
H       66.08512505      30.56763055     -43.49071453
37
Properties=species:S:1:pos:R:3 comment="conf_01920 region=ts E=-70724.852848eV" pbc="F F F"
Fe      -0.92067870      -0.11201983       0.17011796
C       -2.66650413       0.12922817       0.22515892
O       -3.82148951       0.14696472       0.05103579
P       -1.09699825      -1.97475655      -0.95030187
C       -1.13899384      -3.25169548       0.36953777
C       -0.96834233      -2.57774087       1.64472293
N       -0.88835730      -1.27714806       1.61974213
C       -0.95029643      -0.60677719       2.90907275
C       -0.89889249       0.92974081       2.81035577
N       -0.49125071       1.24628882       1.45139251
C       -0.02572057       2.43472018       1.03312312
C        0.09658987       2.60354536      -0.34106213
P       -0.39042191       1.26689428      -1.41032573
H       -1.19999226       1.94472486      -2.37126686
H        0.75161734       1.10041762      -2.24983209
H        0.38195525       3.52663847      -0.85147301
H        0.19642253       3.11016566       1.87764536
H       -1.91534059       1.33848889       2.98184190
H       -0.28019667       1.37265621       3.62281268
H       -0.20056391      -1.01343483       3.61437588
H       -1.89685735      -0.92799110       3.38249199
H       -1.03401550      -3.14532390       2.58937796
H       -1.05880657      -4.33372182       0.20145729
H       -2.12715328      -2.49982903      -1.78581555
H        0.04736569      -2.37616393      -1.69169647
O        1.01384953      -0.12123177      -0.42246584
C        2.18563619      -0.43972625       0.32880246
C        3.28027480       0.53043156      -0.12544418
H        2.70167569       1.46228691      -0.23708016
H        4.14679759       0.70590606       0.53816217
H        3.60676876       0.16510956      -1.11572335
C        2.57840553      -1.87247150      -0.05233370
H        3.64189900      -1.97469186       0.22747004
H        2.54090220      -1.93676162      -1.15532741
H        2.00643557      -2.67427502       0.44682305
H        2.01217643      -0.32249421       1.41508058
H       71.66615502      33.40873433     -47.22265944
37
Properties=species:S:1:pos:R:3 comment="conf_01921 region=ts E=-70724.969319eV" pbc="F F F"
Fe      -0.82580151      -0.20499493       0.08001983
C       -2.51628798       0.11195687       0.21451450
O       -3.65303803       0.28630601       0.41951783
P       -1.14970081      -2.20036431      -1.06733847
C       -1.65115491      -3.17342918       0.40778925
C       -1.47405383      -2.47210439       1.66723858
N       -0.89344030      -1.30600938       1.70814796
C       -0.68472938      -0.60687718       2.96642491
C       -1.14392617       0.85031407       2.76892324
N       -0.74051994       1.17608553       1.41087612
C       -0.21023520       2.37100286       1.10264338
C        0.17679797       2.56276098      -0.21844749
P       -0.32213862       1.26881859      -1.33375761
H       -1.16082389       2.07612743      -2.16027184
H        0.48183059       1.04873094      -2.49217636
H        0.34233699       3.58018527      -0.58107432
H       -0.06533421       3.17496015       1.84523907
H       -2.24987911       0.89060114       2.83888231
H       -0.70951137       1.59164010       3.47657028
H        0.40878898      -0.71278880       3.10029836
H       -1.13193346      -1.12448180       3.83554843
H       -1.85155713      -2.97401175       2.57521259
H       -2.12903977      -4.16005353       0.34728767
H       -2.14304300      -2.43336081      -2.06432770
H       -0.17532251      -3.00209550      -1.72169057
O        1.02992409       0.03251292      -0.42370311
C        2.20388937      -0.25202303       0.33772423
C        3.32663317       0.47628303      -0.40712241
H        3.26433228       1.57525306      -0.34405577
H        4.37993760       0.23412264      -0.17488427
H        3.32457190       0.14423268      -1.46090115
C        2.45980218      -1.75630224       0.49246324
H        3.11107464      -2.04395480       1.33677224
H        2.80316429      -2.13285306      -0.48858048
H        1.54216994      -2.33011145       0.71130121
H        2.10682830       0.27335937       1.30642659
H       77.29123178      36.26917736     -50.98379729
37
Properties=species:S:1:pos:R:3 comment="conf_01922 region=ts E=-70725.024962eV" pbc="F F F"
Fe      -0.97135827      -0.16638162       0.10510156
C       -2.66717004       0.17332464       0.11517413
O       -3.79462580       0.42265823       0.29209486
P       -1.32136162      -2.16908578      -1.10307520
C       -1.74072396      -3.14528447       0.39541892
C       -1.28576544      -2.52185014       1.62577509
N       -0.95984227      -1.26075775       1.67030971
C       -0.36443048      -0.69106851       2.86886967
C       -0.89941421       0.75231638       2.80798077
N       -0.68554919       1.12405911       1.41901544
C       -0.24357014       2.34219132       1.06568107
C        0.16969221       2.54841059      -0.24524791
P       -0.30752769       1.23671465      -1.34926610
H       -1.30895232       1.94294412      -2.08183347
H        0.70342769       0.89465855      -2.29673954
H        0.73298309       3.44655626      -0.50999556
H       -0.06904760       3.16144192       1.78482105
H       -1.97630822       0.85977499       3.04964410
H       -0.29016571       1.33092240       3.53810142
H        0.73882118      -0.64931860       2.79131630
H       -0.79613190      -1.24649800       3.72234122
H       -1.35393059      -3.07119562       2.58097643
H       -2.10464927      -4.18011676       0.34913184
H       -2.16775780      -2.77543710      -2.07824450
H       -0.14506263      -2.62347150      -1.75898445
O        0.89538482      -0.24829445      -0.33300321
C        2.07786880      -0.20205517       0.46607148
C        3.28720453       0.17593919      -0.39439769
H        3.13038462       1.17336753      -0.83727257
H        4.14436886       0.26656654       0.29776011
H        3.49081146      -0.38793692      -1.32245979
C        2.36200735      -1.60879132       1.00704298
H        3.21814184      -1.59095001       1.70451909
H        2.66558632      -2.35798952       0.25293643
H        1.40997005      -1.98530245       1.42063741
H        2.08549928       0.50604824       1.31599096
H       82.86245526      39.10050287     -54.70916333
37
Properties=species:S:1:pos:R:3 comment="conf_01923 region=ts E=-70724.845932eV" pbc="F F F"
Fe      -1.01412088      -0.16802082       0.19229654
C       -2.76548540       0.43141675       0.19212340
O       -3.90254802       0.40148244      -0.07399159
P       -1.46392930      -1.92238319      -0.96769341
C       -1.07171069      -3.16115295       0.33073924
C       -0.93429797      -2.58701585       1.65773517
N       -1.06248124      -1.29140803       1.71717132
C       -1.07576017      -0.62075833       3.00777568
C       -0.71002813       0.86602463       2.83750703
N       -0.30904359       1.07063765       1.45529848
C        0.13653914       2.25291355       0.99953938
C        0.25876324       2.44305218      -0.37186698
P       -0.54724223       1.20495169      -1.36413890
H       -1.32941014       1.89486420      -2.33907500
H        0.32097904       0.90321791      -2.45587496
H        0.74958059       3.24414744      -0.92989766
H        0.55927359       3.03195682       1.65770282
H       -1.59532008       1.50782792       3.02188679
H        0.08844955       1.12894116       3.56713233
H       -0.35227562      -1.11184337       3.68624997
H       -2.09471844      -0.74501862       3.41955855
H       -0.75539766      -3.17289900       2.57619700
H       -1.18322142      -4.23642035       0.13883469
H       -2.46249824      -2.52757311      -1.78721084
H       -0.33754074      -2.31972706      -1.73823174
O        0.79713447      -0.62455523      -0.31632774
C        1.94875134      -0.46155236       0.51200517
C        3.05429451       0.21906395      -0.30059289
H        2.67938847       1.15711471      -0.74229433
H        3.90457111       0.51085449       0.34276892
H        3.47585794      -0.46049928      -1.06295067
C        2.32675074      -1.85068515       1.04088891
H        3.25426399      -1.85619485       1.64042732
H        2.56243661      -2.49706227       0.17556606
H        1.54441056      -2.33074858       1.65463065
H        1.72258839       0.10326173       1.43594627
H       88.22952010      41.82807467     -58.29795912
37
Properties=species:S:1:pos:R:3 comment="conf_01924 region=ts E=-70724.650096eV" pbc="F F F"
Fe      -1.22632155      -0.03568736       0.23577449
C       -2.93632043       0.37723048       0.12233099
O       -4.07332608       0.63526859       0.04981097
P       -1.00695352      -2.07035159      -0.83103922
C       -0.67260363      -3.21129014       0.56924027
C       -0.92057973      -2.46794711       1.79209875
N       -1.32274110      -1.22825945       1.79010787
C       -1.51768375      -0.43636230       2.99447626
C       -0.65828713       0.83384331       2.84856508
N       -0.63977153       1.15974428       1.43201952
C        0.08994130       2.20327208       1.00469572
C        0.47194028       2.27847026      -0.32957147
P       -0.38815864       1.15433995      -1.40832174
H       -0.99987428       2.18549248      -2.18343125
H        0.58694684       0.65754828      -2.32434926
H        0.74466017       3.27198515      -0.69372197
H        0.51883980       2.86285818       1.77915310
H       -1.09999609       1.65491840       3.44888010
H        0.38947046       0.71360338       3.20464261
H       -1.26085118      -0.99854805       3.91257537
H       -2.57734136      -0.20145721       3.20714279
H       -0.79797249      -3.00990505       2.74608280
H       -0.68100698      -4.30919313       0.56862002
H       -1.84684913      -2.94780590      -1.57913876
H       -0.12114043      -1.91948915      -1.93237402
O        0.59662180      -0.59851441      -0.08800771
C        1.89476162      -0.71669817       0.49490943
C        2.87282906       0.07854952      -0.37500151
H        2.56220711       1.13639264      -0.36629182
H        3.91504286      -0.06546791      -0.03577324
H        2.84897687      -0.35021834      -1.39298996
C        2.25135050      -2.20819669       0.51874261
H        3.19971755      -2.42429833       1.04186546
H        2.11336750      -2.50756952      -0.53646895
H        1.49572294      -2.75988990       1.10513632
H        1.83122421      -0.35495929       1.53843219
H       93.40963546      44.46064672     -61.76170656
37
Properties=species:S:1:pos:R:3 comment="conf_01925 region=ts E=-70724.582005eV" pbc="F F F"
Fe      -1.08817659      -0.14077010       0.20892923
C       -2.71108716       0.41398168       0.17072904
O       -3.86506489       0.59322076       0.14186008
P       -1.09060540      -2.08796467      -0.66788548
C       -0.90776189      -3.16359690       0.80991589
C       -1.34305728      -2.40545650       1.96973270
N       -1.45506953      -1.12484280       1.75515153
C       -1.87664693      -0.26737610       2.85179659
C       -0.84244864       0.87425768       2.87131970
N       -0.53834077       1.21275589       1.49070645
C       -0.07415463       2.37029816       0.99204448