37
Properties=species:S:1:pos:R:3 comment="conf_00966 region=p E=-70731.214673eV" pbc="F F F"
Fe       0.26660504      -0.40603851      -0.14348356
C        1.50879140      -1.63602723      -0.01656055
O        2.46120462      -2.30625123      -0.11206588
P       -1.28259965      -1.04198482      -1.40976359
C       -2.62049289      -1.67745608      -0.24478644
C       -1.98396437      -1.56047850       1.11017373
N       -0.81586406      -1.03823359       1.26412669
C       -0.20183454      -0.92074876       2.59414345
C        0.55547436       0.41712214       2.61424178
N        1.13423026       0.60391702       1.30010873
C        2.24429219       1.30667234       1.03055143
C        2.67401763       1.36200143      -0.28897604
P        1.64822371       0.53284059      -1.48510844
H        2.56777910      -0.18235407      -2.31146012
H        1.40734526       1.45926970      -2.54249653
H        3.48709211       1.95444268      -0.71509894
H        2.62591874       1.83519723       1.92140253
H        1.29999108       0.39936355       3.43621580
H        0.01103519       1.37075506       2.79094052
H       -1.04256102      -1.01430291       3.30633411
H        0.58931123      -1.69089874       2.63346691
H       -2.42483282      -2.18405994       1.90720791
H       -2.83320739      -2.73593155      -0.48687958
H       -1.25349316      -2.12978680      -2.34266844
H       -2.00105784      -0.44743703      -2.47151684
O       -1.24961678       0.77015722      -0.70171006
C       -1.54435170       1.95491288      -0.00444907
C       -0.68169412       3.11083601      -0.53480175
H        0.28092834       2.73267647      -0.91489845
H       -0.41621017       3.67199067       0.38128248
H       -1.05014654       3.88616379      -1.23148955
C       -3.00658498       2.24906562      -0.38080969
H       -3.38893550       3.22840212      -0.03908506
H       -3.14525263       2.27274475      -1.47681554
H       -3.65563809       1.44076153       0.00149993
H       -1.53895814       1.91701140       1.10954543
H       -3.57500713      -1.14973571      -0.41542193
37
Properties=species:S:1:pos:R:3 comment="conf_00967 region=p E=-70731.345816eV" pbc="F F F"
Fe       0.33482265      -0.43105179      -0.15242631
C        1.47311505      -1.71333492      -0.18808194
O        2.30134611      -2.53024182      -0.07804177
P       -1.31484528      -1.04596044      -1.39722105
C       -2.66575548      -1.47857085      -0.15671968
C       -1.97987090      -1.36676029       1.17438141
N       -0.70471271      -1.18019105       1.16643786
C        0.02830452      -1.10242310       2.43782191
C        0.47681382       0.36176158       2.57501486
N        1.13035376       0.55665761       1.29763573
C        2.13847582       1.40634695       1.05170570
C        2.68914600       1.43416812      -0.22299673
P        1.78490968       0.58971385      -1.50352288
H        2.76926746      -0.18737451      -2.18698178
H        1.61803107       1.57967327      -2.51668366
H        3.41846754       2.23311941      -0.37604700
H        2.51211931       2.11396881       1.81213642
H        1.35716561       0.38096418       3.24945820
H       -0.32050196       1.05604637       2.92042527
H       -0.50609168      -1.44857127       3.34191874
H        0.85422028      -1.82679695       2.32062705
H       -2.45452653      -1.74245921       2.09743864
H       -3.06175292      -2.51153325      -0.17675904
H       -1.24439611      -2.32776540      -2.03478260
H       -2.13829921      -0.29449279      -2.26567324
O       -1.25390697       0.74599323      -0.38727290
C       -1.71248100       2.00830686       0.02861375
C       -0.83241597       3.13391841      -0.53715524
H        0.06178991       3.34837714       0.06990608
H       -1.24666706       4.15067890      -0.67564976
H       -0.29441607       2.86597260      -1.46506979
C       -3.09654100       2.27482146      -0.58754143
H       -3.50656937       3.25728228      -0.28969065
H       -2.93806250       2.31363765      -1.68042574
H       -3.95589456       1.61226473      -0.37941621
H       -1.79183506       2.03485115       1.14012069
H       -3.59690334      -0.89993766      -0.28652724
37
Properties=species:S:1:pos:R:3 comment="conf_00968 region=p E=-70731.794071eV" pbc="F F F"
Fe       0.33225274      -0.43916019      -0.13795881
C        1.31970693      -1.89324986      -0.18307532
O        1.89100659      -2.90976774      -0.25870929
P       -1.30321043      -1.05857387      -1.40681414
C       -2.49976149      -1.64991991      -0.07657762
C       -1.75863086      -1.69118283       1.22871627
N       -0.71300752      -0.94436872       1.32791353
C       -0.03970148      -0.95219245       2.63419731
C        0.80660241       0.32787943       2.72909183
N        1.25063151       0.52565189       1.36508280
C        2.16791629       1.45567361       1.06108951
C        2.57417799       1.69130531      -0.24593274
P        1.64902493       0.75389844      -1.44420390
H        2.49236301       0.10320476      -2.39568760
H        1.05979252       1.58176769      -2.44510378
H        3.36483267       2.40782796      -0.48070485
H        2.48349540       2.04563497       1.93912624
H        1.57969581       0.12710680       3.49868833
H        0.25770560       1.24676118       3.03145060
H       -0.87269840      -1.05729942       3.35382055
H        0.50178031      -1.90059634       2.80127957
H       -2.20200518      -2.26283574       2.06245151
H       -2.96764189      -2.60505054      -0.38160268
H       -1.49708309      -2.26217615      -2.16062229
H       -1.98870162      -0.38866047      -2.44522979
O       -1.02135945       0.86319771      -0.69300327
C       -1.69971769       1.97012751      -0.15335147
C       -0.83507343       3.22272062      -0.36550984
H       -0.08986763       3.32320607       0.43990379
H       -1.43192171       4.15296796      -0.42026946
H       -0.33515550       3.20911085      -1.35149213
C       -3.01970626       2.25637681      -0.88955174
H       -3.34589800       3.24536930      -0.51866037
H       -2.74777045       2.32286676      -1.95849900
H       -3.80435345       1.48327558      -0.80335806
H       -1.90339625       1.78577192       0.92691582
H       -3.36879525      -0.98185370       0.05445892
37
Properties=species:S:1:pos:R:3 comment="conf_00969 region=p E=-70731.421566eV" pbc="F F F"
Fe       0.42050200      -0.45183847      -0.08827703
C        1.31926796      -1.97163136      -0.05898609
O        1.67091081      -3.04812617      -0.34694207
P       -1.14565866      -1.12117663      -1.46360703
C       -2.43302591      -1.57082426      -0.16304701
C       -1.91458119      -1.26800751       1.21328377
N       -0.71915000      -0.81562041       1.37817697
C       -0.01593480      -0.87866684       2.66708854
C        0.85226827       0.39015045       2.65503042
N        1.26116079       0.59421534       1.28099955
C        2.12422325       1.57634241       0.98214628
C        2.40892397       1.75499236      -0.36540992
P        1.59839322       0.61648308      -1.46873677
H        2.66191024       0.05313735      -2.23783739
H        1.06333767       1.48386105      -2.46660146
H        3.12861954       2.41464213      -0.85587700
H        2.48486424       2.23878840       1.78818380
H        1.73206264       0.35054572       3.32931164
H        0.34516870       1.30466911       3.03392072
H       -0.77373618      -0.92238109       3.47121233
H        0.46500331      -1.86335930       2.52684504
H       -2.52051117      -1.23658635       2.13542467
H       -2.79991000      -2.60571511      -0.29951627
H       -1.16020301      -2.39766363      -2.11540545
H       -1.66368077      -0.36698574      -2.54056497
O       -1.08516744       0.80515178      -0.72474174
C       -1.81411969       1.84827801      -0.12707642
C       -0.94138052       3.08390286       0.14341924
H        0.08412979       2.87383145      -0.20055567
H       -0.98408926       3.30846528       1.22616311
H       -1.47218585       3.86018763      -0.43786546
C       -2.95519515       2.28983871      -1.05942307
H       -3.55489516       3.10099163      -0.60725224
H       -2.38997721       2.65512129      -1.93584507
H       -3.53775317       1.37701364      -1.27888293
H       -2.19800260       1.41612333       0.82598476
H       -3.29109031      -0.93108129      -0.43352276
37
Properties=species:S:1:pos:R:3 comment="conf_00970 region=p E=-70732.123868eV" pbc="F F F"
Fe       0.37907602      -0.49909837      -0.14569566
C        1.42553019      -1.86867250       0.00922330
O        2.02981886      -2.86868790       0.02394817
P       -1.27170705      -1.17852227      -1.44924105
C       -2.68001388      -1.38598230      -0.21449980
C       -2.03820704      -1.21685408       1.13244078
N       -0.78069037      -0.96912008       1.26727096
C       -0.03680894      -0.84248663       2.52837517
C        0.69721921       0.50842371       2.52042805
N        1.21935375       0.67321889       1.17990039
C        2.21265728       1.52636261       0.88962889
C        2.57799805       1.65295616      -0.44430444
P        1.69515997       0.59354814      -1.57069031
H        2.69716350       0.20024038      -2.50943445
H        1.13260401       1.39781137      -2.60560787
H        3.35726644       2.38067629      -0.68267732
H        2.73307277       2.14662002       1.63998981
H        1.55572237       0.35210054       3.20511571
H        0.08596473       1.36485034       2.88091875
H       -0.72168727      -0.95360630       3.38941117
H        0.61436922      -1.73457785       2.50137229
H       -2.64391536      -1.23705765       2.05504115
H       -3.30125278      -2.30155281      -0.21006163
H       -1.52683362      -2.48402523      -1.98313639
H       -1.95037155      -0.54118513      -2.51235207
O       -0.95308563       0.88662076      -0.67650393
C       -1.78675109       1.77449720       0.02589544
C       -1.09736037       3.02864401       0.58577628
H       -1.11506901       3.66262465      -0.31526485
H       -0.10146361       2.82204050       1.02177080
H       -1.75602380       3.53569702       1.31469601
C       -2.73702732       2.21801163      -1.09952420
H       -3.49056866       2.89808827      -0.66164427
H       -2.05865509       2.69275923      -1.83126464
H       -3.21004040       1.34727653      -1.58826245
H       -2.29807677       1.28357346       0.88612174
H       -3.41717624      -0.56519652      -0.25456253
37
Properties=species:S:1:pos:R:3 comment="conf_00971 region=p E=-70731.449481eV" pbc="F F F"
Fe       0.28340578      -0.44535432      -0.09378995
C        1.47236900      -1.65746253       0.16738191
O        2.36621470      -2.40183528       0.27856417
P       -1.28435315      -1.03329567      -1.45417979
C       -2.67156797      -1.44398136      -0.24673369
C       -1.98901752      -1.49717166       1.08970374
N       -0.79565562      -1.04539652       1.27049681
C       -0.05734689      -0.97900283       2.53946158
C        0.74140813       0.33402273       2.58157496
N        1.20318913       0.59839325       1.23485194
C        2.28683493       1.28757134       0.84818805
C        2.51470223       1.56884085      -0.49264823
P        1.60831694       0.52072177      -1.61086362
H        2.45657292      -0.20064177      -2.50531265
H        0.85111935       1.34982419      -2.49041117
H        3.34963013       2.18593736      -0.83286104
H        2.86854776       1.73603683       1.67225232
H        1.46819120       0.22001648       3.41166575
H        0.08768532       1.19368717       2.84742401
H       -0.88037567      -1.08276802       3.27065602
H        0.57466994      -1.84004220       2.82187061
H       -2.41851242      -2.10782200       1.90279817
H       -3.13174631      -2.41971598      -0.49250738
H       -1.42164650      -2.33679050      -2.03428628
H       -2.04542813      -0.34113738      -2.42303012
O       -1.07477195       0.79332565      -0.73396061
C       -1.75265521       1.86230078      -0.12203415
C       -0.81932996       2.98612129       0.35497926
H       -1.23394523       3.98284541       0.13417313
H        0.13745001       2.95070572      -0.19991209
H       -0.64362829       2.89951192       1.44304726
C       -2.79065955       2.43445398      -1.10258859
H       -3.49547691       3.10018619      -0.57145704
H       -2.42219941       2.92668018      -2.02072187
H       -3.39584256       1.57881491      -1.45247627
H       -2.31863687       1.61824207       0.80670126
H       -3.47600296      -0.70054404      -0.38416725
37
Properties=species:S:1:pos:R:3 comment="conf_00972 region=p E=-70731.463457eV" pbc="F F F"
Fe       0.28725393      -0.41747004      -0.16725040
C        1.59184517      -1.66147498      -0.00163522
O        2.46427881      -2.42439702       0.14743493
P       -1.36775188      -1.26831761      -1.40517426
C       -2.68707200      -1.62695285      -0.10835932
C       -2.05728378      -1.24475929       1.20009941
N       -0.77563922      -1.11949408       1.25104496
C       -0.07286375      -1.07081403       2.54081875
C        0.62744889       0.29707199       2.58845617
N        1.14274211       0.45458836       1.24441083
C        2.24607944       1.19346778       1.05608231
C        2.62407171       1.50776120      -0.24284783
P        1.65356032       0.68431468      -1.48805346
H        2.73133771       0.36406272      -2.36883562
H        1.27913201       1.63651091      -2.48177810
H        3.51500843       2.08925359      -0.49135504
H        2.71878591       1.46810767       2.01509983
H        1.47975368       0.54709694       3.25277980
H       -0.09387517       1.10252435       2.84920567
H       -0.73205360      -1.15351015       3.42479784
H        0.59384289      -1.94828401       2.46247562
H       -2.47751341      -1.35014041       2.21537482
H       -2.93362340      -2.70537255      -0.08714086
H       -1.68818201      -2.39882375      -2.22599834
H       -2.07200364      -0.40251310      -2.27200828
O       -1.16623775       0.84257343      -0.75353218
C       -1.75669180       1.96767032      -0.15169452
C       -0.68891267       3.07118359      -0.09073110
H       -0.93241921       3.88351870       0.61278605
H       -0.50140914       3.49853248      -1.09412631
H        0.26878769       2.63971460       0.25410042
C       -2.90646226       2.49562883      -1.02667283
H       -3.15556142       3.55895675      -0.85535158
H       -2.68563082       2.60277588      -2.10406375
H       -3.88119751       1.98214662      -0.94292752
H       -2.06808570       1.91311147       0.91718645
H       -3.65329785      -1.17318040      -0.38978580
37
Properties=species:S:1:pos:R:3 comment="conf_00973 region=p E=-70731.509628eV" pbc="F F F"
Fe       0.35161405      -0.40339750      -0.05677841
C        1.47674573      -1.76427087      -0.09474961
O        2.15001152      -2.68201979      -0.35906476
P       -1.19806913      -1.12601044      -1.48221284
C       -2.54341046      -1.42374450      -0.19676937
C       -1.91195113      -1.66740321       1.14362569
N       -0.80215307      -1.03702031       1.32213415
C       -0.22290362      -0.90538847       2.66635238
C        0.54327969       0.42739850       2.68783067
N        1.04997501       0.64394090       1.34873933
C        2.16729419       1.32941569       1.06503906
C        2.64022335       1.40171853      -0.23879694
P        1.68626150       0.55179827      -1.47899287
H        2.58974086      -0.00745225      -2.43340711
H        1.07969774       1.60358161      -2.22745469
H        3.55683557       1.99609427      -0.25283272
H        2.67067241       1.78286078       1.93658425
H        1.39803449       0.38895768       3.39364818
H       -0.10150386       1.30077163       2.92975166
H       -1.06676832      -0.75230389       3.36438277
H        0.32361409      -1.80834314       2.99281863
H       -2.59249645      -2.11030670       1.89140698
H       -3.30866466      -2.19148874      -0.41853883
H       -1.43083777      -2.33974521      -2.20825585
H       -1.78569366      -0.21092334      -2.38459979
O       -0.95129023       0.88057891      -0.64662021
C       -1.69574613       1.97213011      -0.16600712
C       -0.78502748       3.17925496      -0.43996234
H       -1.00088797       4.18965613      -0.05706045
H       -0.63393016       3.21853557      -1.53550478
H        0.19884742       2.87800036      -0.03561091
C       -3.09725948       2.21308885      -0.75252100
H       -3.54826339       3.05109634      -0.19002075
H       -3.14874597       2.52686946      -1.81077857
H       -3.86678968       1.42081981      -0.72220392
H       -1.72686588       2.01472428       0.94739607
H       -3.10034150      -0.48791649      -0.01578190
37
Properties=species:S:1:pos:R:3 comment="conf_00974 region=p E=-70731.759826eV" pbc="F F F"
Fe       0.39808943      -0.46909883      -0.10673135
C        1.33468315      -1.90098582      -0.13053144
O        1.74099695      -2.96204595      -0.40342869
P       -1.27217298      -1.06452213      -1.47124816
C       -2.54539408      -1.70796487      -0.24005229
C       -2.10968687      -1.21000331       1.10789536
N       -0.85229375      -0.93800033       1.18455374
C       -0.17661283      -0.87892591       2.48829644
C        0.52703873       0.48348219       2.60026933
N        1.20379693       0.63468428       1.32907595
C        2.09039822       1.60709355       1.06999678
C        2.68728813       1.73018805      -0.17798084
P        2.00418839       0.55497000      -1.32808122
H        3.06807313      -0.09384289      -2.02603086
H        1.60171284       1.09342318      -2.58603372
H        3.46831006       2.42592289      -0.49359963
H        2.41879138       2.18293307       1.95269709
H        1.27179519       0.43725921       3.42091728
H       -0.14227420       1.36469849       2.71220785
H       -0.88887520      -1.01552678       3.32304877
H        0.47418052      -1.77051639       2.53437657
H       -2.80414948      -1.21855817       1.96587599
H       -2.39992540      -2.79598140      -0.37892553
H       -1.25047990      -2.23027433      -2.30492855
H       -2.06517004      -0.37690966      -2.41746903
O       -1.06109324       0.87004799      -0.61606395
C       -1.66752520       1.99918139      -0.03814907
C       -0.83110236       3.19889575      -0.51005226
H       -1.24472844       4.12186767      -0.07283784
H       -0.82276412       3.24478716      -1.61567925
H        0.15613279       2.97627628      -0.06499994
C       -3.15117895       2.08611421      -0.43502887
H       -3.70331474       2.94179602      -0.00488666
H       -3.15225223       2.02794226      -1.53849300
H       -3.59882424       1.15270622      -0.04883034
H       -1.49053245       2.01785763       1.06220275
H       -3.55731360      -1.36619413      -0.51918370
37
Properties=species:S:1:pos:R:3 comment="conf_00975 region=p E=-70731.283720eV" pbc="F F F"
Fe       0.39848849      -0.43200583      -0.07304689
C        1.25002323      -1.92017136       0.13801089
O        1.66738144      -3.00864304       0.05767441
P       -1.04250006      -1.05199061      -1.53022634
C       -2.53450839      -1.47505632      -0.45976834
C       -1.93043496      -1.57224171       0.91151560
N       -0.79512833      -1.01247387       1.15366925
C       -0.27702841      -0.82696239       2.51636418
C        0.52245434       0.48628847       2.52069665
N        1.29247725       0.54775076       1.29591769
C        2.19433537       1.50945420       1.04986462
C        2.58606170       1.61457052      -0.27843469
P        1.71815775       0.55486238      -1.41608798
H        2.67686143       0.18137134      -2.40671119
H        0.97752687       1.44717883      -2.24650965
H        3.35490315       2.25126951      -0.72245575
H        2.68714921       2.08664082       1.85147749
H        1.20507373       0.65565827       3.37837167
H       -0.06171329       1.42274965       2.65795862
H       -1.00293211      -0.94595059       3.34201213
H        0.35361308      -1.72669620       2.63194676
H       -2.43282132      -1.99668379       1.79804769
H       -2.97708246      -2.46002368      -0.70100344
H       -0.92515981      -2.27040554      -2.27599313
H       -1.48910814      -0.32587582      -2.65729677
O       -1.08484244       0.86875380      -0.75036235
C       -1.56784609       2.01935422      -0.10266357
C       -0.87968965       3.34851569      -0.45106108
H       -1.22425572       3.97380929       0.38822569
H       -1.24099054       3.72558594      -1.42669743
H        0.21676901       3.22076986      -0.51208291
C       -3.10166479       2.00441805      -0.21875155
H       -3.38013867       3.03593269       0.06496919
H       -3.22523449       1.91074826      -1.31281495
H       -3.60144809       1.24411701       0.40810175
H       -1.36258356       1.89687012       0.98605784
H       -3.21421781      -0.60742247      -0.52229281
37
Properties=species:S:1:pos:R:3 comment="conf_00976 region=p E=-70731.263849eV" pbc="F F F"
Fe       0.35637360      -0.47327966      -0.23728341
C        1.44413971      -1.84101443       0.05907716
O        2.02367693      -2.69343551       0.60946550
P       -1.30904251      -1.11769383      -1.68289009
C       -2.56287785      -1.59632700      -0.36010477
C       -2.08201848      -1.05283319       0.95448951
N       -0.80963370      -1.01878700       1.15642371
C       -0.28544581      -0.97983566       2.52882649
C        0.77399260       0.13008604       2.62620891
N        1.06615772       0.58924104       1.28433982
C        2.09043260       1.44018612       1.12459892
C        2.52599236       1.67694412      -0.17274890
P        1.73551482       0.72922021      -1.45628241
H        2.76480654       0.36013552      -2.37512824
H        1.24118611       1.74459767      -2.32749458
H        3.32328313       2.42391383      -0.16814732
H        2.46473895       1.80879102       2.09548423
H        1.65576320      -0.42096269       3.01232773
H        0.47565506       0.98855385       3.26736406
H       -1.20086379      -0.87975153       3.14102092
H        0.21062013      -1.87938028       2.93543073
H       -2.74965866      -0.98429278       1.83086904
H       -2.56596647      -2.68653202      -0.17123878
H       -1.60112726      -2.25647624      -2.50284916
H       -2.00180842      -0.26005377      -2.56692523
O       -0.99763909       0.78716922      -0.70320184
C       -1.41733746       1.96957717      -0.06881059
C       -0.78615993       3.27017799      -0.59002337
H       -1.41335633       4.14695408      -0.36196966
H       -0.60841724       3.19784737      -1.67986850
H        0.16820690       3.30532864      -0.03305601
C       -2.94910025       1.98614072      -0.20926601
H       -3.28923614       2.75471086       0.50883922
H       -3.10947336       2.27119808      -1.26474740
H       -3.34434600       0.97164836      -0.02119120
H       -1.25375548       1.79861913       1.02043853
H       -3.60037792      -1.21932873      -0.37308961
37
Properties=species:S:1:pos:R:3 comment="conf_00977 region=p E=-70731.507485eV" pbc="F F F"
Fe       0.31449699      -0.51409399      -0.17068763
C        1.56277986      -1.69779446      -0.00393108
O        2.49753364      -2.29241217       0.36765680
P       -1.12376433      -1.09882620      -1.57772494
C       -2.56492320      -1.53023129      -0.44286612
C       -2.11695203      -1.45123883       0.98816546
N       -0.89578065      -1.13234600       1.24883269
C       -0.55731390      -0.61795661       2.58323269
C        0.96460473      -0.40025040       2.56955937
N        1.17167615       0.32459122       1.33322511
C        1.93941584       1.39166106       1.06732785
C        2.10383753       1.78200447      -0.25534955
P        1.69945601       0.50910905      -1.43293454
H        2.90384686      -0.16301570      -1.80392461
H        1.37092660       0.88041603      -2.77030601
H        2.77413644       2.56944722      -0.60789849
H        2.35488681       1.89865212       1.95554910
H        1.41923665      -1.41177332       2.58938402
H        1.38194796       0.20941581       3.40093410
H       -0.97487228       0.40543243       2.61653147
H       -0.95816288      -1.21196504       3.42410308
H       -2.78610732      -1.45473614       1.86606137
H       -3.03327342      -2.50828054      -0.66262650
H       -1.06949404      -2.17487043      -2.52305839
H       -1.79165382      -0.20597890      -2.44590495
O       -0.98782135       0.96254035      -0.54185833
C       -1.51641265       2.14064332       0.01433603
C       -0.77836643       3.32488883      -0.62945019
H       -1.36774100       4.23348501      -0.42644588
H       -0.71521617       3.25131488      -1.73180472
H        0.23460483       3.52364864      -0.23366238
C       -3.01015461       2.29153627      -0.32072455
H       -3.55369876       3.02360629       0.30433614
H       -3.07782925       2.49012919      -1.40562049
H       -3.58595174       1.35842010      -0.18457040
H       -1.48813825       2.13134286       1.12859068
H       -3.26362468      -0.74734775      -0.78581263
37
Properties=species:S:1:pos:R:3 comment="conf_00978 region=p E=-70731.091965eV" pbc="F F F"
Fe       0.33958597      -0.47816372      -0.10361056
C        1.57343002      -1.68724966      -0.21567937
O        2.36454564      -2.48635212      -0.53345876
P       -1.12555922      -1.28758770      -1.44469848
C       -2.50947591      -1.87166674      -0.30690234
C       -2.28493178      -1.16145943       0.99692084
N       -1.05518592      -0.98887843       1.34165332
C       -0.81379569      -0.24356947       2.58504579
C        0.72183724      -0.16850472       2.58905611
N        1.05199795       0.47426050       1.33420824
C        2.18901509       1.18256117       1.26889458
C        2.43175559       1.70329792       0.00446257
P        1.51897090       0.87693380      -1.28178782
H        2.58183865       0.37311381      -2.09198544
H        1.07056168       1.84998202      -2.22331277
H        3.34203823       2.23622219      -0.28020340
H        2.71655663       1.37923939       2.21842640
H        1.24006988      -1.14857203       2.55492651
H        1.11515570       0.33238619       3.50090099
H       -1.18477037       0.79492201       2.66691259
H       -1.11963183      -0.91135961       3.41033940
H       -3.15277093      -0.90119359       1.62747549
H       -2.35149583      -2.96539066      -0.25179205
H       -1.17458346      -2.40804525      -2.33724724
H       -1.72806622      -0.50746431      -2.45730996
O       -0.87073306       0.85428930      -0.83760733
C       -1.33156903       1.95154299      -0.08904065
C       -0.59994799       3.22581697      -0.53911485
H       -0.76795067       4.16925512       0.00477825
H       -0.80217435       3.46481684      -1.60051494
H        0.49628970       3.09071144      -0.49143183
C       -2.82246313       1.95483830      -0.46788526
H       -3.36677026       2.91691113      -0.48248754
H       -2.98199249       1.65635990      -1.51977843
H       -3.34559168       1.25313492       0.20645513
H       -1.22561433       1.85419056       1.01628531
H       -3.55002936      -1.75598035      -0.65699928
37
Properties=species:S:1:pos:R:3 comment="conf_00979 region=p E=-70731.238015eV" pbc="F F F"
Fe       0.36784396      -0.42236842      -0.04477123
C        1.35849545      -1.86683035      -0.26512470
O        1.87455041      -2.84714650      -0.63671577
P       -1.02151940      -1.10643348      -1.53894981
C       -2.25256919      -1.92302277      -0.36905575
C       -1.99923955      -1.47462313       1.04145168
N       -0.86944634      -0.89232503       1.25451464
C       -0.66498636      -0.22782152       2.54927745
C        0.85575216      -0.07517060       2.71622455
N        1.23234555       0.36706762       1.38980109
C        2.14247653       1.34645266       1.28382826
C        2.63499776       1.58322835       0.00702047
P        1.85620583       0.62243429      -1.27393680
H        2.73998963      -0.21903619      -2.01609329
H        1.66534147       1.48129864      -2.39656129
H        3.31610298       2.43118084      -0.09656400
H        2.45752613       2.06572949       2.05970048
H        1.42457235      -1.01028013       2.89587866
H        1.19794523       0.72960226       3.40346305
H       -1.15565344       0.73442014       2.31236870
H       -1.20302304      -0.67707968       3.40325204
H       -2.79121549      -1.44585728       1.80984539
H       -2.27857046      -3.02900390      -0.38793828
H       -0.80508077      -2.31658392      -2.27594506
H       -1.90343190      -0.44111406      -2.42018168
O       -1.12896413       0.85968562      -0.66325541
C       -1.73493423       2.02810941      -0.16901492
C       -1.02983692       3.35292416      -0.49964161
H       -1.71258462       4.17265907      -0.22394176
H       -0.73339942       3.46307797      -1.56010261
H       -0.09651680       3.48178196       0.07878166
C       -3.19324655       2.24992798      -0.60538751
H       -3.62131863       2.70995281       0.30411734
H       -3.53998253       2.86559491      -1.45494423
H       -3.67288436       1.26682635      -0.76109504
H       -1.75539484       2.05718596       0.94507003
H       -3.29859050      -1.69756168      -0.64055054
37
Properties=species:S:1:pos:R:3 comment="conf_00980 region=p E=-70730.813425eV" pbc="F F F"
Fe       0.40843191      -0.32731485      -0.11134833
C        1.19446494      -1.87556010      -0.07175161
O        1.37578764      -3.01936845       0.08393051
P       -1.14253310      -0.79680236      -1.59542563
C       -2.11840852      -1.91033106      -0.42980358
C       -1.86936615      -1.40490001       0.96206089
N       -0.69714867      -0.93678728       1.22220739
C       -0.45027492      -0.46497614       2.59196180
C        1.05202400      -0.13800712       2.59487895
N        1.21806725       0.55691335       1.33539034
C        2.25281493       1.39576440       1.17921784