37
Properties=species:S:1:pos:R:3 comment="conf_00000 region=r E=-70731.294681eV" pbc="F F F"
Fe      -0.46396899      -0.31717713      -0.10004261
C       -1.85426229      -1.31961769       0.11392567
O       -2.77652380      -2.03703346       0.10423615
P       -1.50920310       0.77871742      -1.65740679
C       -2.43481639       1.92299189      -0.62390775
C       -2.17789674       1.75356354       0.71639138
N       -1.21007047       0.89241494       1.15642370
C       -1.00974771       0.64002505       2.58448830
C        0.31701938      -0.12803427       2.63527390
N        0.48938613      -0.93345292       1.43430692
C        1.50871718      -1.80804181       1.41982006
C        1.80617527      -2.30628445       0.15583154
P        0.64692217      -1.83004451      -1.11005902
H        0.21804581      -3.11965375      -1.54949872
H        1.39192260      -1.78779053      -2.33015952
H        2.67336058      -2.89718826      -0.14898650
H        2.14037930      -1.99725010       2.30539889
H        0.36467449      -0.74931884       3.55174515
H        1.16797274       0.58959359       2.69767538
H       -1.04168064       1.57394183       3.18161529
H       -1.88570968       0.00649889       2.83715876
H       -2.70619260       2.34806126       1.48139964
H       -3.41195334       2.34421694      -0.87609338
H       -2.37951709       0.26024641      -2.65903136
H       -1.09939880       1.75388870      -2.61747808
O        1.31730448       1.41845013      -0.27791478
C        2.76903663       1.34832492      -0.31792440
C        3.32181368       1.01769106      -1.69723774
H        2.97870740      -0.01510295      -1.86143816
H        4.39865353       1.24752439      -1.76819892
H        2.84232066       1.59255061      -2.50871415
C        3.20393382       2.73129494       0.16562560
H        3.88918662       2.69940574       1.03032135
H        3.79008424       3.05553386      -0.71222465
H        2.37220715       3.43197344       0.36116201
H        3.05557376       0.52227609       0.35859483
H        1.07660000       2.21816456      -0.83708086
37
Properties=species:S:1:pos:R:3 comment="conf_00001 region=r E=-70731.824933eV" pbc="F F F"
Fe      -0.34490919      -0.17105447      -0.11257611
C       -1.62292894      -1.31518701      -0.05273769
O       -2.65084033      -1.86962041      -0.01603152
P       -1.55996227       0.83744140      -1.65061973
C       -2.43689835       1.96300094      -0.55593114
C       -2.17433607       1.73407786       0.77439615
N       -1.19504395       0.87942202       1.20153008
C       -1.14093004       0.39169952       2.58080410
C        0.30767205      -0.08459167       2.74664723
N        0.66951374      -0.71335398       1.48392804
C        1.39537198      -1.84221658       1.53824608
C        1.75513826      -2.42688774       0.32865032
P        0.85418982      -1.85481209      -1.09759388
H        0.01966531      -2.88154722      -1.63566260
H        1.77522887      -1.84353956      -2.19167627
H        2.40521916      -3.30508784       0.31280265
H        1.92460173      -2.10440481       2.47110185
H        0.18950595      -0.87495033       3.51447212
H        1.04097462       0.68317137       3.08695967
H       -1.48567286       1.23913117       3.20753603
H       -1.84184106      -0.45577713       2.73250853
H       -2.76814608       2.19179051       1.58411863
H       -3.13529868       2.68190517      -0.99323932
H       -2.75962251       0.27144322      -2.17020783
H       -1.07609257       1.50580787      -2.81672087
O        1.09465531       1.35366097      -0.43567943
C        2.54577424       1.26599538      -0.46044134
C        3.12065530       0.86733914      -1.81246630
H        2.52561962      -0.01658862      -2.08805912
H        4.03632413       0.40647789      -1.40429914
H        3.21565347       1.64562453      -2.58971673
C        3.09346230       2.57775813       0.10069902
H        4.19660589       2.60647915       0.12385887
H        2.67675417       3.35288253      -0.56627979
H        2.70139395       2.69852286       1.12668752
H        2.64618649       0.41364083       0.23637109
H        0.85406786       2.31461537      -0.60548185
37
Properties=species:S:1:pos:R:3 comment="conf_00002 region=r E=-70732.012727eV" pbc="F F F"
Fe      -0.27683826      -0.17986892      -0.11213201
C       -1.61500038      -1.37741418       0.04323313
O       -2.42417819      -2.21624137       0.12657445
P       -1.48576920       0.76103401      -1.66308269
C       -2.48603453       1.91474168      -0.71299209
C       -2.14637215       1.83930931       0.61744201
N       -1.10251432       1.07677230       1.06553931
C       -1.03176220       0.61378202       2.45256221
C        0.38139399       0.05552141       2.66265709
N        0.70478735      -0.68044341       1.44836567
C        1.34594850      -1.86059679       1.46573520
C        1.48985959      -2.60384850       0.29900453
P        0.71730232      -1.88945049      -1.13833393
H       -0.13688343      -2.85652835      -1.75091965
H        1.48263251      -1.96543384      -2.34413345
H        1.80064042      -3.65146739       0.30027580
H        1.92460628      -2.04698501       2.38739741
H        0.42921062      -0.61228089       3.54579849
H        1.12417440       0.86711338       2.84321467
H       -1.23417249       1.49327902       3.09699685
H       -1.87359933      -0.10279198       2.55424354
H       -2.66103475       2.38765823       1.42502950
H       -3.20671331       2.67720745      -1.02136333
H       -2.15917070       0.24593333      -2.80794606
H       -0.89690150       1.68327665      -2.58141751
O        1.04575524       1.27824870      -0.11546051
C        2.48220055       1.26226661      -0.33999110
C        2.81747967       1.14699232      -1.82042558
H        2.31898229       0.33659456      -2.37369133
H        3.88756396       0.94914780      -2.00268928
H        2.60574039       2.07317289      -2.38276627
C        3.11617840       2.49075374       0.31150998
H        4.15694823       2.43122197      -0.05117609
H        2.70123340       3.48756133       0.08016714
H        3.13728841       2.34480047       1.40659267
H        2.79673350       0.35573948       0.20902262
H        0.63414068       2.05679576       0.36888075
37
Properties=species:S:1:pos:R:3 comment="conf_00003 region=r E=-70731.481837eV" pbc="F F F"
Fe      -0.32210811      -0.25204789      -0.13870816
C       -1.58422939      -1.41447250       0.20366073
O       -2.23515273      -2.35519595       0.44174426
P       -1.31444625       0.77801402      -1.70490528
C       -2.38883596       1.90318184      -0.80272545
C       -2.19200769       1.85896996       0.55757577
N       -1.15910208       1.09966181       1.03554043
C       -0.93525402       0.85888829       2.46211624
C        0.32665819       0.00513224       2.63955186
N        0.38469261      -0.95288520       1.54430498
C        1.08551023      -2.09827983       1.57712543
C        1.39026581      -2.59483671       0.31421240
P        0.73782495      -1.79892973      -1.13974914
H       -0.04856487      -2.82720844      -1.74337824
H        1.87852530      -1.98633768      -1.98185200
H        1.83107384      -3.59132541       0.23180937
H        1.58442046      -2.38987086       2.51792823
H        0.36827397      -0.53798540       3.60468214
H        1.28540252       0.57402317       2.62622019
H       -0.69305793       1.81928761       2.96086981
H       -1.89458361       0.54368938       2.92346592
H       -2.85876787       2.41943765       1.23512174
H       -3.23296614       2.36403290      -1.32319190
H       -2.18044080       0.06293015      -2.58138626
H       -0.66274001       1.60071007      -2.67396960
O        1.11478122       1.29750620      -0.20545536
C        2.53586752       1.20829746      -0.49973430
C        2.56992144       1.74458912      -1.92402996
H        2.16384907       1.17503660      -2.77377246
H        3.60699358       2.02843199      -2.17173446
H        2.02802106       2.70490423      -1.97889264
C        3.27147645       2.25205650       0.33991373
H        4.35508323       2.04481721       0.30621993
H        3.16128691       3.33462974       0.15225002
H        2.83869418       2.11227963       1.34694702
H        2.86638835       0.17404907      -0.29182875
H        0.94978121       2.13088639       0.33157441
37
Properties=species:S:1:pos:R:3 comment="conf_00004 region=r E=-70731.826702eV" pbc="F F F"
Fe      -0.38485409      -0.26074682      -0.18309873
C       -1.51987753      -1.47506449       0.15929508
O       -2.41284097      -2.13017801       0.53183788
P       -1.50811961       0.75971588      -1.70584302
C       -2.23455709       2.10753857      -0.76249426
C       -2.09814006       1.94261662       0.59592638
N       -1.19494790       1.01379269       1.03572535
C       -1.26670334       0.53422387       2.41705199
C        0.05434948      -0.13295902       2.82015450
N        0.54657946      -0.76163164       1.60228277
C        1.18084404      -1.94336097       1.67560115
C        1.47357518      -2.68968998       0.53907332
P        0.97087903      -1.91423021      -0.98378907
H        0.54111946      -2.99557320      -1.81212366
H        2.07319551      -1.74984588      -1.88007721
H        2.29262682      -3.41270103       0.56145901
H        1.50414779      -2.22482862       2.69309674
H       -0.18317731      -0.91921771       3.56417291
H        0.89533235       0.50467828       3.17955928
H       -1.25866412       1.41571774       3.08987057
H       -2.21060426      -0.00733499       2.63676132
H       -2.66625544       2.53013284       1.33743249
H       -2.86450926       2.78970536      -1.34010444
H       -2.67787285       0.25370375      -2.34234871
H       -1.11197322       1.19267874      -3.00824338
O        1.16684210       1.36462276      -0.40073376
C        2.54388924       1.32962030      -0.86609445
C        2.70765956       2.22671928      -2.08501988
H        1.81387590       2.14236428      -2.72171617
H        3.65106516       2.00034460      -2.61055132
H        2.70717677       3.26049108      -1.69748064
C        3.43681177       1.86951596       0.25049153
H        4.46007901       2.08080129      -0.10527485
H        3.06222370       2.83016732       0.64565856
H        3.62131915       1.05994902       0.97954057
H        2.71924568       0.24280617      -0.96720647
H        1.05080065       1.72522016       0.53020792
37
Properties=species:S:1:pos:R:3 comment="conf_00005 region=r E=-70731.815818eV" pbc="F F F"
Fe      -0.36701080      -0.34113345      -0.04372183
C       -1.75540597      -1.32181379       0.03763969
O       -2.60893280      -2.09288928       0.24326096
P       -1.39717850       0.64239215      -1.77586293
C       -2.13443164       2.01619001      -0.87954740
C       -2.05814836       1.90702002       0.48916667
N       -1.20016358       1.00157747       1.05124224
C       -1.26206554       0.61886866       2.46294351
C        0.06778492      -0.05814474       2.81784604
N        0.49600394      -0.72292775       1.59497107
C        1.50631980      -1.60803372       1.59576124
C        1.78733527      -2.40161214       0.48866703
P        0.82156718      -1.91212707      -0.92584613
H        0.10093167      -2.93550012      -1.61397852
H        1.69354272      -1.64717909      -2.02807908
H        2.65215731      -3.06483749       0.40925257
H        2.04698447      -1.72957066       2.55072570
H        0.03343339      -0.91018354       3.52568426
H        0.93057260       0.55843368       3.16198811
H       -1.32299628       1.54035546       3.07689010
H       -2.18287864       0.00761155       2.56770573
H       -2.61172477       2.56904087       1.17694806
H       -2.78301383       2.80350842      -1.27362304
H       -2.17951673      -0.06716178      -2.73189145
H       -0.57010385       1.34942987      -2.70143339
O        1.12652940       1.27464412      -0.11590126
C        2.38092422       1.37964093      -0.84357828
C        2.46411470       2.48241425      -1.88969340
H        1.80550403       2.18461295      -2.71968949
H        3.51160821       2.37798538      -2.22029115
H        2.21506364       3.48535206      -1.50115725
C        3.56943115       1.36427810       0.11703480
H        4.35229428       1.11829951      -0.62114331
H        3.71976206       2.39006433       0.49714985
H        3.52938096       0.67549497       0.98012685
H        2.37387520       0.41091285      -1.37617069
H        0.75258927       2.20643586      -0.07027822
37
Properties=species:S:1:pos:R:3 comment="conf_00006 region=r E=-70731.419232eV" pbc="F F F"
Fe      -0.43540161      -0.36512381      -0.10144708
C       -1.75198569      -1.47377568       0.04880444
O       -2.69209704      -2.16005958      -0.05391186
P       -1.29381782       0.69612825      -1.73463689
C       -2.33665789       1.85990100      -0.84448978
C       -2.11896936       1.93376579       0.51133881
N       -1.37572081       0.92084893       1.05307130
C       -0.98276629       0.98592040       2.46181217
C        0.19527996       0.04881822       2.75651837
N        0.36578994      -0.90629541       1.67050940
C        1.57778662      -1.48438200       1.70262404
C        1.96182892      -2.11555330       0.52426571
P        0.87484865      -1.87037287      -0.86552262
H        0.51504157      -3.19110415      -1.27337296
H        1.83508380      -1.81247300      -1.92384787
H        2.64655819      -2.96269850       0.61134368
H        2.04354959      -1.52010196       2.70304176
H        0.01757062      -0.48463628       3.71152139
H        1.20602789       0.50092055       2.88689257
H       -0.70089937       2.03030093       2.70594588
H       -1.90562066       0.85675334       3.06527123
H       -2.60984536       2.58370161       1.25590975
H       -2.95819020       2.56789150      -1.39971208
H       -2.13956029       0.45042450      -2.85439568
H       -0.38198388       1.36824076      -2.60495817
O        1.08584038       1.11777222      -0.19302087
C        2.29868489       1.24252953      -0.98516249
C        2.41247036       2.63010524      -1.60085154
H        1.56924716       2.75084531      -2.29780465
H        3.36923192       2.61921988      -2.15033469
H        2.45021396       3.48193478      -0.89954356
C        3.51242601       1.06223987      -0.07417929
H        4.48347500       1.06695046      -0.59889704
H        3.31769094       1.92096347       0.59215116
H        3.36495638       0.10926094       0.46530006
H        2.04560801       0.51202752      -1.77538865
H        1.30075235       1.44130152       0.73395818
37
Properties=species:S:1:pos:R:3 comment="conf_00007 region=r E=-70731.873588eV" pbc="F F F"
Fe      -0.30273194      -0.22728580      -0.04882159
C       -1.55978037      -1.42025849       0.00792477
O       -2.45066863      -2.17520997       0.04930064
P       -1.55785209       0.46145374      -1.70573092
C       -2.36505780       1.84639511      -0.89050050
C       -2.03098516       1.99443285       0.43524297
N       -1.19460141       1.08193035       1.01807609
C       -1.25282633       0.77210644       2.44769749
C        0.07116713       0.06500519       2.76369487
N        0.47459399      -0.72018163       1.60548090
C        1.42265760      -1.66236012       1.73824555
C        1.66681759      -2.50547172       0.65938376
P        0.87177881      -1.91870245      -0.82276546
H        0.26878235      -3.03682014      -1.47571433
H        1.85870219      -1.72660645      -1.83988769
H        2.35315666      -3.35159099       0.74371985
H        1.63110356      -1.80778653       2.81269802
H       -0.07083786      -0.59075064       3.64574020
H        0.87780471       0.77873577       3.05167019
H       -1.37074881       1.79933964       2.84853058
H       -2.20495629       0.22434479       2.60867221
H       -2.43519221       2.73283084       1.14878816
H       -3.01855709       2.49553850      -1.47988685
H       -2.53293868      -0.28946517      -2.42325259
H       -0.99718616       1.11424461      -2.84597357
O        1.15215227       1.30607003      -0.38305307
C        2.36152320       1.45125113      -1.17702344
C        2.66921539       2.93064204      -1.36172474
H        1.80528230       3.51819268      -1.70777532
H        3.43012252       3.20864760      -2.11084167
H        3.04975690       3.43081644      -0.45404376
C        3.46634460       0.85517653      -0.30545761
H        4.46559385       1.06566663      -0.72436321
H        3.51246525       1.46071751       0.61677730
H        3.32690780      -0.20957239      -0.04503252
H        2.06414064       0.92026545      -2.09992988
H        1.31121330       1.44822336       0.59910810
37
Properties=species:S:1:pos:R:3 comment="conf_00008 region=r E=-70731.655990eV" pbc="F F F"
Fe      -0.22813160      -0.23429585      -0.14350121
C       -1.46291995      -1.41132262       0.16866618
O       -2.16109104      -2.25066004       0.58509792
P       -1.46560160       0.57124727      -1.75840280
C       -2.46200433       1.83588468      -0.95708010
C       -2.27724707       1.81476161       0.40546677
N       -1.39144971       0.96731570       1.01299576
C       -1.33203160       0.71280784       2.45344485
C        0.10221100       0.22216006       2.68800424
N        0.52197744      -0.65552500       1.60440089
C        1.17549180      -1.81469875       1.78712067
C        1.29014409      -2.71633313       0.73436034
P        0.91826322      -1.94798780      -0.82912974
H        0.31832036      -2.81914313      -1.78896884
H        2.12282333      -1.92262985      -1.59974517
H        2.01536952      -3.53305353       0.76764076
H        1.34292227      -2.07446994       2.84708889
H        0.12356098      -0.34719552       3.63856380
H        0.78822421       1.08445730       2.85781192
H       -1.49815346       1.66368610       2.99935231
H       -2.18986286       0.01776556       2.56984456
H       -2.82005979       2.43066393       1.14288140
H       -3.14106951       2.59924161      -1.34692804
H       -2.10642343      -0.31945926      -2.66697292
H       -0.88225538       1.22097735      -2.88897501
O        1.11004594       1.52057338      -0.36898279
C        2.31241473       1.64537373      -1.17693001
C        2.85924380       3.06276909      -1.08020936
H        2.31538530       3.83731071      -1.64203707
H        3.86650536       2.91590276      -1.50599961
H        2.93670356       3.48155347      -0.06163651
C        3.38276180       0.68593359      -0.65789823
H        4.02348712       0.43260630      -1.52021106
H        4.02299689       0.97061624       0.19555303
H        2.87933140      -0.20519741      -0.24148801
H        2.04496453       1.35988559      -2.21090554
H        1.16798995       2.31691170       0.24145664
37
Properties=species:S:1:pos:R:3 comment="conf_00009 region=r E=-70731.497351eV" pbc="F F F"
Fe      -0.29216532      -0.18859640      -0.19590257
C       -1.36821386      -1.42805589       0.36078684
O       -2.08521213      -2.20979183       0.85083579
P       -1.23294420       0.75318263      -1.83306161
C       -2.64356691       1.48928545      -0.99488473
C       -2.43659817       1.64651347       0.35550733
N       -1.32031809       1.06277582       0.88941948
C       -1.17307241       0.84289812       2.32927046
C        0.20700726       0.25330326       2.64638748
N        0.57865111      -0.62522259       1.54602194
C        1.32978112      -1.72208328       1.73798988
C        1.40108843      -2.58092077       0.64633634
P        0.77237828      -1.96978615      -0.90427294
H        0.18701844      -3.15974030      -1.43483596
H        1.82109025      -2.14691397      -1.86045556
H        2.12155395      -3.40246912       0.63742393
H        1.72157681      -1.98297827       2.73672736
H        0.04695401      -0.33865920       3.56950637
H        1.05605030       0.94120070       2.86758495
H       -1.35618980       1.84743713       2.76187916
H       -2.06119393       0.28308767       2.69032384
H       -3.16238011       2.14865737       1.01796770
H       -3.33488060       2.04094666      -1.63798663
H       -1.93823831       0.24900987      -2.96349536
H       -0.46199178       1.73751674      -2.52396985
O        0.99504308       1.43666097      -0.24581022
C        2.25696809       1.53754102      -0.96094171
C        2.76165178       2.97369480      -0.97290818
H        1.85218037       3.58944747      -1.04402469
H        3.43157635       3.19249724      -1.82188961
H        3.36091451       3.06368987      -0.05005602
C        3.30083742       0.51530546      -0.51268565
H        4.10475167       0.50415581      -1.26891619
H        3.65121321       0.63731360       0.52735043
H        2.92195743      -0.50129925      -0.72225407
H        1.93701380       1.17730869      -1.95592934
H        1.00668227       1.99959739       0.58672545
37
Properties=species:S:1:pos:R:3 comment="conf_00010 region=r E=-70732.164417eV" pbc="F F F"
Fe      -0.37157106      -0.25983196      -0.12174667
C       -1.66037914      -1.35036018       0.19169142
O       -2.47843456      -2.04541759       0.65323894
P       -1.62870791       0.46858694      -1.84980917
C       -2.51672192       1.73266123      -0.92905319
C       -2.32365381       1.76096939       0.43221049
N       -1.29121820       1.04299203       0.97117090
C       -1.27968648       0.70359063       2.39520464
C        0.15788584       0.23433955       2.65209859
N        0.49047159      -0.61065658       1.51363496
C        1.38509927      -1.60445758       1.64072651
C        1.80972172      -2.29317561       0.50946292
P        0.86297322      -1.89319944      -0.94547265
H        0.19228264      -3.06439082      -1.41303979
H        1.79549594      -1.76779232      -2.02256628
H        2.43466855      -3.18836430       0.55605044
H        1.84404266      -1.85817216       2.61234710
H        0.27428576      -0.31421807       3.60798598
H        0.94657176       1.02010698       2.71167541
H       -1.41680900       1.59557357       3.03967711
H       -2.12361016       0.01165812       2.59899225
H       -2.85193460       2.44473332       1.11861271
H       -3.22773636       2.36491397      -1.46807056
H       -2.58287249      -0.40005725      -2.45357870
H       -1.49900746       1.21464673      -3.06109282
O        1.25644269       1.36852893      -0.38183865
C        2.60413715       1.46676005      -0.91860195
C        2.90324665       2.95091599      -1.07735065
H        2.29824514       3.41634492      -1.87025433
H        3.94416209       3.18763175      -1.35646281
H        2.61002499       3.36784884      -0.09803502
C        3.69663350       0.65470202      -0.22392525
H        4.63422892       0.85661442      -0.77021571
H        3.94230564       1.07703270       0.76633039
H        3.50942099      -0.43323081      -0.17588627
H        2.52584671       0.96927155      -1.90273318
H        1.21914892       1.48208483       0.61609058
37
Properties=species:S:1:pos:R:3 comment="conf_00011 region=r E=-70731.679941eV" pbc="F F F"
Fe      -0.47122205      -0.39157899      -0.11985681
C       -1.83968506      -1.43773882       0.17189168
O       -2.86459219      -1.99675223       0.22103374
P       -1.95760156       0.35836031      -1.65304816
C       -2.47949267       1.87430308      -0.83831416
C       -1.95335161       2.01483788       0.42443719
N       -1.03952483       1.16589090       0.98666728
C       -1.08596423       0.89297322       2.42421995
C        0.11208654      -0.00959204       2.74493092
N        0.50029132      -0.68127731       1.51250764
C        1.48563328      -1.59401796       1.52504217
C        2.09081755      -2.09698705       0.37823437
P        1.02187659      -1.78917547      -1.01308458
H        0.85733921      -3.02891493      -1.70309014
H        1.86001208      -1.36702666      -2.09233225
H        2.79068572      -2.93479759       0.42670880
H        1.97888949      -1.80645116       2.48972716
H       -0.05872949      -0.84553106       3.45218825
H        1.02191793       0.53193580       3.09415829
H       -0.91639323       1.83200197       2.98924350
H       -2.07058350       0.45847032       2.69668878
H       -2.20673664       2.91526894       1.00991272
H       -3.13828531       2.67710888      -1.18083399
H       -3.09728082      -0.47249933      -1.85383123
H       -1.74688960       0.57329791      -3.04948569
O        1.33711585       1.17414598      -0.67967408
C        2.77651640       1.28083487      -0.85513939
C        2.90122392       2.70914253      -1.36677576
H        2.36821034       2.76856502      -2.32787547
H        3.92467151       3.11178888      -1.45551059
H        2.34738249       3.49029440      -0.81729195
C        3.60051640       1.13363337       0.42349972
H        4.69070960       1.12888930       0.25103721
H        3.37521958       1.92250226       1.16258798
H        3.16124253       0.24447465       0.91072588
H        3.18793213       0.55363064      -1.57905209
H        1.17032179       1.73217191       0.13943234
37
Properties=species:S:1:pos:R:3 comment="conf_00012 region=r E=-70731.589035eV" pbc="F F F"
Fe      -0.50285598      -0.40804852      -0.08011483
C       -1.76134084      -1.58992955       0.32261541
O       -2.59988349      -2.39882176       0.41141402
P       -1.38211697       0.63067165      -1.71717879
C       -2.22311169       1.94476588      -0.82267978
C       -1.99556534       1.98359224       0.53298633
N       -1.21494895       0.98274496       1.04370720
C       -0.42480655       1.12899779       2.26742426
C        0.08124537      -0.25990039       2.67690993
N        0.70020146      -0.66236285       1.42166157
C        1.63145078      -1.61978347       1.27928261
C        1.95901991      -2.22819656       0.07225074
P        0.67739050      -1.93719377      -1.13020281
H        0.45398697      -3.30242548      -1.48568473
H        1.38445050      -1.60704450      -2.32875355
H        2.82489939      -2.88954350      -0.01120351
H        2.24651926      -1.69731986       2.19291573
H       -0.72573334      -0.93174966       3.03129528
H        0.83437372      -0.11114808       3.48541208
H        0.48084283       1.75894034       2.15449741
H       -0.96931127       1.57904875       3.12385631
H       -2.29727263       2.82210498       1.18385556
H       -2.99514873       2.50838732      -1.35382423
H       -2.31711878       0.40143484      -2.76728950
H       -0.56856763       1.40326926      -2.60141059
O        0.89830910       1.26634526      -0.46006869
C        2.34679357       1.39255324      -0.46304396
C        2.88905392       2.13133757      -1.67858415
H        2.37881373       1.84957893      -2.61218694
H        3.89275797       1.76696960      -1.95653570
H        2.98594362       3.22640671      -1.57706077
C        2.81114895       1.91642661       0.89544528
H        3.86493477       2.22391630       0.78023861
H        2.18730746       2.79378039       1.14120202
H        2.95863794       1.15727271       1.68467685
H        2.73124883       0.35819723      -0.52967924
H        0.44322886       2.14408447      -0.64069086
37
Properties=species:S:1:pos:R:3 comment="conf_00013 region=r E=-70731.465829eV" pbc="F F F"
Fe      -0.33383987      -0.26346330      -0.20060091
C       -1.51489669      -1.48360472       0.18852811
O       -2.06161728      -2.37807509       0.70463364
P       -1.59286493       0.74024279      -1.71485762
C       -2.10546254       2.15368519      -0.72811117
C       -1.90179168       1.96193166       0.61831531
N       -1.01698476       1.00444743       1.03332584
C       -0.88625230       0.84229039       2.48239883
C        0.12451257      -0.29534829       2.67459097
N        0.67695487      -0.72409260       1.39720419
C        1.28269886      -1.91808870       1.28950602
C        1.71023575      -2.46473453       0.08419090
P        0.73680761      -1.88998189      -1.29248924
H        0.11868765      -3.07664497      -1.79238182
H        1.78025317      -1.98644810      -2.26581955
H        2.36886402      -3.33581340       0.04517680
H        1.74690583      -2.24931798       2.23494016
H       -0.50326432      -1.04018216       3.20308296
H        0.98978176      -0.11362340       3.35377474
H       -0.68274150       1.81625089       2.97205708
H       -1.87276140       0.46363882       2.82288366
H       -2.25004887       2.73946265       1.31968839
H       -2.76100344       2.87062564      -1.23019412
H       -2.84091918       0.17925893      -2.11130197
H       -1.35025227       1.37396886      -2.97190411
O        0.98098081       1.19807959      -0.36118646
C        2.41579830       1.40706179      -0.25315967
C        2.93631721       1.40327336      -1.68369531
H        2.93243760       0.36796975      -2.05716357
H        3.96138781       1.80615568      -1.74971815
H        2.19877012       1.95690117      -2.29064801
C        2.62265275       2.61723139       0.65692989
H        3.57200564       2.78341062       1.19488956
H        2.54040663       3.46442174      -0.04651045
H        1.74526599       2.64387708       1.32807561
H        2.83306301       0.53252130       0.27901281
H        0.48514365       1.91300725       0.14197601
37
Properties=species:S:1:pos:R:3 comment="conf_00014 region=r E=-70731.643056eV" pbc="F F F"
Fe      -0.26127071      -0.13941491      -0.12071355
C       -1.38027047      -1.41774834       0.27814117
O       -2.00025778      -2.33967159       0.64010641
P       -1.65969236       0.76007837      -1.64390074
C       -2.41710561       2.03101419      -0.62150571
C       -2.19381098       1.79029984       0.71390118
N       -1.10675026       1.11227157       1.19397379
C       -1.20550528       0.36119934       2.44670533
C        0.19943459      -0.23300105       2.60756264
N        0.56790662      -0.89500740       1.36389586
C        1.04940637      -2.13936233       1.20933162